 Gaussian 09, Revision C.01,
 Gaussian 09:  AM64L-G09RevC.01 23-Sep-2011

 ---------------------------------------------------------
 #B3LYP/6-31G* Integral=(Grid=UltraFine) freq Opt pop=none
 ---------------------------------------------------------

 99/9=1/99;
 -----------------------------
 Optimization for frag19-conf0
 -----------------------------
 Charge =  1 Multiplicity = 1

 SCF Done:  E(RB3LYP) =  -535.294707066     A.U. after   17 cycles
 SCF Done:  E(RB3LYP) =  -535.297668989     A.U. after   13 cycles
 SCF Done:  E(RB3LYP) =  -535.297895525     A.U. after   12 cycles
 SCF Done:  E(RB3LYP) =  -535.297951257     A.U. after   13 cycles
 SCF Done:  E(RB3LYP) =  -535.298093511     A.U. after   15 cycles
 SCF Done:  E(RB3LYP) =  -535.298741250     A.U. after   15 cycles
 SCF Done:  E(RB3LYP) =  -535.269808761     A.U. after   17 cycles
 SCF Done:  E(RB3LYP) =  -535.299622157     A.U. after   16 cycles
 SCF Done:  E(RB3LYP) =  -535.302596180     A.U. after   14 cycles
 SCF Done:  E(RB3LYP) =  -535.286481270     A.U. after   17 cycles
 SCF Done:  E(RB3LYP) =  -535.310482852     A.U. after    9 cycles
 SCF Done:  E(RB3LYP) =  -535.310483221     A.U. after    8 cycles
 SCF Done:  E(RB3LYP) =  -535.310483776     A.U. after    8 cycles
 SCF Done:  E(RB3LYP) =  -535.310484956     A.U. after    8 cycles
 SCF Done:  E(RB3LYP) =  -535.310488471     A.U. after   10 cycles
 SCF Done:  E(RB3LYP) =  -535.310489649     A.U. after    9 cycles
 SCF Done:  E(RB3LYP) =  -535.310489743     A.U. after    7 cycles
 SCF Done:  E(RB3LYP) =  -535.310489747     A.U. after    6 cycles
 SCF Done:  E(RB3LYP) =  -535.310489748     A.U. after    5 cycles
 Optimization completed.
    -- Stationary point found.
 Normal termination of Gaussian 09 at Fri Feb 16 19:36:51 2018.

 --------------------------------------------------------------------
 #N Geom=AllCheck Guess=TCheck SCRF=Check GenChk RB3LYP/6-31G(d) Freq
 --------------------------------------------------------------------

 Structure from the checkpoint file:  frag19-conf0.chk
 -----------------------------
 Optimization for frag19-conf0
 -----------------------------
 Charge =  1 Multiplicity = 1

                         Standard orientation:
 ---------------------------------------------------------------------
 Center     Atomic      Atomic             Coordinates (Angstroms)
 Number     Number       Type             X           Y           Z
 ---------------------------------------------------------------------
      1          6           0        1.331076    1.549115    0.018712
      2          6           0        0.475727   -0.655096   -0.406643
      3          6           0        2.582285    0.996918    0.233530
      4          6           0        1.740675   -1.157955   -0.185744
      5          6           0        0.243622    0.729258   -0.306398
      6          6           0       -2.866130   -0.345760    0.036404
      7          6           0       -4.079106   -0.624835    0.897117
      8          6           0        4.113581   -0.926366    0.383930
      9          6           0       -1.139740    1.299557   -0.573177
     10          7           0        2.776652   -0.337491    0.130943
     11          7           0       -2.157877    0.796704    0.337219
     12          8           0       -2.517116   -1.073164   -0.887613
     13          1           0        1.218523    2.625011    0.103862
     14          1           0       -0.342167   -1.318824   -0.671449
     15          1           0        3.449366    1.594481    0.488033
     16          1           0        1.973041   -2.214209   -0.258609
     17          1           0       -4.980628   -0.385129    0.322120
     18          1           0       -4.112402   -1.691938    1.128320
     19          1           0       -4.095578   -0.048941    1.826932
     20          1           0        4.101049   -1.454647    1.340122
     21          1           0        4.357260   -1.619258   -0.423051
     22          1           0        4.855786   -0.129468    0.413258
     23          1           0       -1.111692    2.390094   -0.506093
     24          1           0       -1.429142    1.024800   -1.594786
     25          1           0       -2.489853    1.409830    1.068732
 ---------------------------------------------------------------------

 SCF Done:  E(RB3LYP) =  -535.310489748     A.U. after    1 cycles

 Isotropic polarizability for W=    0.000000      105.37 Bohr**3.
 End of Minotr Frequency-dependent properties file   721 does not exist.

                     1                      2                      3
                     A                      A                      A
 Frequencies --    23.9667                30.9113                58.8915
 Red. masses --     1.0756                 3.3882                 1.1620
 Frc consts  --     0.0004                 0.0019                 0.0024
 IR Inten    --     0.3634                 0.0907                 1.8905

                     4                      5                      6
                     A                      A                      A
 Frequencies --    67.4754               104.1981               128.5141
 Red. masses --     2.7926                 5.5327                 3.5233
 Frc consts  --     0.0075                 0.0354                 0.0343
 IR Inten    --     6.5351                13.2782                 2.1091

                     7                      8                      9
                     A                      A                      A
 Frequencies --   204.5306               233.5414               312.0686
 Red. masses --     5.1196                 5.0316                 2.5557
 Frc consts  --     0.1262                 0.1617                 0.1466
 IR Inten    --     2.8762                11.7884                 4.0471

                    10                     11                     12
                     A                      A                      A
 Frequencies --   321.4703               402.6287               407.8572
 Red. masses --     3.1030                 2.7462                 2.8178
 Frc consts  --     0.1889                 0.2623                 0.2762
 IR Inten    --     6.9423                 0.0442                 0.0509

                    13                     14                     15
                     A                      A                      A
 Frequencies --   428.2302               456.3147               476.2617
 Red. masses --     1.2339                 2.7395                 3.7824
 Frc consts  --     0.1333                 0.3361                 0.5055
 IR Inten    --    79.0754                 8.1846                 6.7277

                    16                     17                     18
                     A                      A                      A
 Frequencies --   561.9483               631.8069               643.1838
 Red. masses --     3.6709                 2.5763                 3.4133
 Frc consts  --     0.6830                 0.6059                 0.8319
 IR Inten    --    22.2243                 0.6967                 9.1069

                    19                     20                     21
                     A                      A                      A
 Frequencies --   679.7231               724.0089               770.5313
 Red. masses --     6.3927                 3.9952                 3.4151
 Frc consts  --     1.7402                 1.2339                 1.1946
 IR Inten    --     1.0476                 5.2887                12.5450

                    22                     23                     24
                     A                      A                      A
 Frequencies --   845.4955               847.3060               876.6016
 Red. masses --     2.2931                 2.9578                 1.6012
 Frc consts  --     0.9658                 1.2511                 0.7249
 IR Inten    --    12.0478                 2.7236                 3.1863

                    25                     26                     27
                     A                      A                      A
 Frequencies --   892.9021               984.6589              1002.6619
 Red. masses --     1.6703                 1.3563                 1.6051
 Frc consts  --     0.7846                 0.7748                 0.9508
 IR Inten    --    23.4205                 0.5473                 5.4707

                    28                     29                     30
                     A                      A                      A
 Frequencies --  1030.0379              1043.8676              1070.3117
 Red. masses --     1.6150                 1.8777                 1.7348
 Frc consts  --     1.0096                 1.2055                 1.1709
 IR Inten    --     6.5723                 4.1001                11.0101

                    31                     32                     33
                     A                      A                      A
 Frequencies --  1079.5639              1099.9771              1113.1803
 Red. masses --     2.8118                 1.5221                 3.2305
 Frc consts  --     1.9308                 1.0851                 2.3586
 IR Inten    --     2.3695                 1.6579                 5.9286

                    34                     35                     36
                     A                      A                      A
 Frequencies --  1157.6869              1183.7555              1205.8733
 Red. masses --     1.3420                 1.2871                 6.8292
 Frc consts  --     1.0597                 1.0626                 5.8509
 IR Inten    --     3.2118                 7.3203                41.9768

                    37                     38                     39
                     A                      A                      A
 Frequencies --  1230.4870              1254.9248              1272.0716
 Red. masses --     1.9340                 1.3758                 1.7818
 Frc consts  --     1.7253                 1.2765                 1.6988
 IR Inten    --     4.6222                 4.1104                76.4789

                    40                     41                     42
                     A                      A                      A
 Frequencies --  1300.8707              1366.8637              1382.6160
 Red. masses --     1.6402                 2.4441                 1.4316
 Frc consts  --     1.6354                 2.6905                 1.6124
 IR Inten    --    95.1305                 2.5114                 5.7027

                    43                     44                     45
                     A                      A                      A
 Frequencies --  1409.0213              1429.7015              1474.2596
 Red. masses --     1.3098                 1.2396                 1.1937
 Frc consts  --     1.5321                 1.4929                 1.5286
 IR Inten    --    18.7651                20.3385                 1.3520

                    46                     47                     48
                     A                      A                      A
 Frequencies --  1485.1614              1493.6999              1497.2069
 Red. masses --     1.0988                 1.0717                 1.7256
 Frc consts  --     1.4280                 1.4088                 2.2791
 IR Inten    --    11.0299                29.3161                11.0474

                    49                     50                     51
                     A                      A                      A
 Frequencies --  1510.8210              1513.4579              1527.9310
 Red. masses --     1.0538                 1.0688                 1.3550
 Frc consts  --     1.4172                 1.4424                 1.8638
 IR Inten    --    20.3520                18.3839                54.0817

                    52                     53                     54
                     A                      A                      A
 Frequencies --  1539.5965              1559.5335              1615.0835
 Red. masses --     1.7803                 2.0325                 5.3283
 Frc consts  --     2.4863                 2.9125                 8.1889
 IR Inten    --   119.6280                43.8286                15.9932

                    55                     56                     57
                     A                      A                      A
 Frequencies --  1690.1915              1771.5076              3067.2536
 Red. masses --     4.9276                 8.8113                 1.0624
 Frc consts  --     8.2939                16.2920                 5.8889
 IR Inten    --   108.8035               164.2750                12.2947

                    58                     59                     60
                     A                      A                      A
 Frequencies --  3069.9651              3096.8556              3132.7428
 Red. masses --     1.0371                 1.0324                 1.1027
 Frc consts  --     5.7587                 5.8339                 6.3764
 IR Inten    --     2.1656                 2.0382                 7.5590

                    61                     62                     63
                     A                      A                      A
 Frequencies --  3138.4567              3164.9074              3181.4466
 Red. masses --     1.1014                 1.1029                 1.1077
 Frc consts  --     6.3920                 6.5091                 6.6056
 IR Inten    --     6.8348                 4.1373                 0.2301

                    64                     65                     66
                     A                      A                      A
 Frequencies --  3203.0340              3220.2148              3227.7901
 Red. masses --     1.1073                 1.0945                 1.0918
 Frc consts  --     6.6934                 6.6872                 6.7018
 IR Inten    --     0.3763                51.9879                 0.2035

                    67                     68                     69
                     A                      A                      A
 Frequencies --  3249.3026              3255.4683              3626.0670
 Red. masses --     1.0954                 1.0966                 1.0788
 Frc consts  --     6.8139                 6.8473                 8.3576
 IR Inten    --     5.3318                 0.9506                37.0825

 - Thermochemistry -
 -------------------
 Temperature   298.150 Kelvin.  Pressure   1.00000 Atm.
 Atom     1 has atomic number  6 and mass  12.00000

 Molecular mass:   165.10279 amu.
 Principal axes and moments of inertia in atomic units:
                           1         2         3
     Eigenvalues --   758.078594013.706964446.66477
           X            0.99995  -0.00818  -0.00594
           Y            0.00807   0.99980  -0.01814
           Z            0.00609   0.01809   0.99982
 This molecule is an asymmetric top.
 Rotational symmetry number  1.
 Warning -- assumption of classical behavior for rotation
           may cause significant error
 Rotational temperatures (Kelvin)      0.11425     0.02158     0.01948
 Rotational constants (GHZ):           2.38068     0.44964     0.40586
 Zero-point vibrational energy     562606.5 (Joules/Mol)
                                  134.46617 (Kcal/Mol)
 Warning -- explicit consideration of  16 degrees of freedom as
           vibrations may cause significant error
 Vibrational temperatures:     34.48    44.47    84.73    97.08   149.92
          (Kelvin)            184.90   294.27   336.01   449.00   462.52
                              579.29   586.81   616.13   656.53   685.23
                              808.52   909.03   925.40   977.97  1041.69
                             1108.62  1216.48  1219.08  1261.23  1284.69
                             1416.70  1442.61  1481.99  1501.89  1539.94
                             1553.25  1582.62  1601.62  1665.65  1703.16
                             1734.98  1770.39  1805.55  1830.23  1871.66
                             1966.61  1989.27  2027.26  2057.02  2121.13
                             2136.81  2149.10  2154.14  2173.73  2177.53
                             2198.35  2215.13  2243.82  2323.74  2431.81
                             2548.80  4413.09  4416.99  4455.68  4507.31
                             4515.53  4553.59  4577.39  4608.45  4633.17
                             4644.06  4675.02  4683.89  5217.10

 Zero-point correction=                           0.214285 (Hartree/Particle)
 Thermal correction to Energy=                    0.226613
 Thermal correction to Enthalpy=                  0.227557
 Thermal correction to Gibbs Free Energy=         0.173393
 Sum of electronic and zero-point Energies=           -535.096204
 Sum of electronic and thermal Energies=              -535.083877
 Sum of electronic and thermal Enthalpies=            -535.082933
 Sum of electronic and thermal Free Energies=         -535.137096

                     E (Thermal)             CV                S
                      KCal/Mol        Cal/Mol-Kelvin    Cal/Mol-Kelvin
 Total                  142.202             44.311            113.997
 Electronic               0.000              0.000              0.000
 Translational            0.889              2.981             41.213
 Rotational               0.889              2.981             30.982
 Vibrational            140.424             38.349             41.802
 Vibration     1          0.593              1.985              6.275
 Vibration     2          0.594              1.984              5.770
 Vibration     3          0.596              1.974              4.494
 Vibration     4          0.598              1.970              4.226
 Vibration     5          0.605              1.946              3.374
 Vibration     6          0.611              1.925              2.968
 Vibration     7          0.640              1.833              2.092
 Vibration     8          0.654              1.790              1.852
 Vibration     9          0.700              1.651              1.351
 Vibration    10          0.707              1.632              1.303
 Vibration    11          0.768              1.464              0.953
 Vibration    12          0.772              1.453              0.934
 Vibration    13          0.790              1.409              0.864
 Vibration    14          0.815              1.347              0.777
 Vibration    15          0.833              1.303              0.720
 Vibration    16          0.918              1.114              0.520

 Optimization completed.
    -- Stationary point found.
 Normal termination of Gaussian 09 at Fri Feb 16 19:55:32 2018.
