 Gaussian 09, Revision C.01,
 Gaussian 09:  AM64L-G09RevC.01 23-Sep-2011

 ----------------------------------------------------------------------
 #HF/6-31G* Geom=AllCheck Guess=Read Pop=(MK,ReadRadii) Integral=(Grid=
 UltraFine) iop(6/33=2)
 ----------------------------------------------------------------------

 Structure from the checkpoint file:  frag19-conf0.chk
 -----------------------------
 Optimization for frag19-conf0
 -----------------------------
 Charge =  1 Multiplicity = 1

                         Standard orientation:
 ---------------------------------------------------------------------
 Center     Atomic      Atomic             Coordinates (Angstroms)
 Number     Number       Type             X           Y           Z
 ---------------------------------------------------------------------
      1          6           0        1.331076    1.549115    0.018712
      2          6           0        0.475727   -0.655096   -0.406643
      3          6           0        2.582285    0.996918    0.233530
      4          6           0        1.740675   -1.157955   -0.185744
      5          6           0        0.243622    0.729258   -0.306398
      6          6           0       -2.866130   -0.345760    0.036404
      7          6           0       -4.079106   -0.624835    0.897117
      8          6           0        4.113581   -0.926366    0.383930
      9          6           0       -1.139740    1.299557   -0.573177
     10          7           0        2.776652   -0.337491    0.130943
     11          7           0       -2.157877    0.796704    0.337219
     12          8           0       -2.517116   -1.073164   -0.887613
     13          1           0        1.218523    2.625011    0.103862
     14          1           0       -0.342167   -1.318824   -0.671449
     15          1           0        3.449366    1.594481    0.488033
     16          1           0        1.973041   -2.214209   -0.258609
     17          1           0       -4.980628   -0.385129    0.322120
     18          1           0       -4.112402   -1.691938    1.128320
     19          1           0       -4.095578   -0.048941    1.826932
     20          1           0        4.101049   -1.454647    1.340122
     21          1           0        4.357260   -1.619258   -0.423051
     22          1           0        4.855786   -0.129468    0.413258
     23          1           0       -1.111692    2.390094   -0.506093
     24          1           0       -1.429142    1.024800   -1.594786
     25          1           0       -2.489853    1.409830    1.068732
 ---------------------------------------------------------------------

 SCF Done:  E(RHF) =  -531.962417082     A.U. after   14 cycles

 The electronic state is 1-A.
 Alpha  occ. eigenvalues --  -20.64350 -15.84568 -15.71815 -11.48512 -11.47705
 Alpha  occ. eigenvalues --  -11.47383 -11.44697 -11.44195 -11.42000 -11.41958
 Alpha  occ. eigenvalues --  -11.40881 -11.33923  -1.50851  -1.49649  -1.35797
 Alpha  occ. eigenvalues --   -1.29109  -1.23161  -1.16865  -1.12219  -1.07489
 Alpha  occ. eigenvalues --   -1.06037  -1.00076  -0.91448  -0.88952  -0.87204
 Alpha  occ. eigenvalues --   -0.83467  -0.81505  -0.80761  -0.79183  -0.78571
 Alpha  occ. eigenvalues --   -0.77594  -0.73876  -0.72387  -0.70925  -0.70437
 Alpha  occ. eigenvalues --   -0.69361  -0.68927  -0.67789  -0.65537  -0.61770
 Alpha  occ. eigenvalues --   -0.55846  -0.53701  -0.53019  -0.51918
 Alpha virt. eigenvalues --   -0.08860  -0.04098   0.06370   0.07846   0.09430
 Alpha virt. eigenvalues --    0.10978   0.12362   0.13645   0.14011   0.15613
 Alpha virt. eigenvalues --    0.16470   0.17007   0.17497   0.19096   0.20172

 Mulliken atomic charges:
              1
     1  C   -0.298294
     2  C   -0.287864
     3  C    0.167845
     4  C    0.155244
     5  C    0.127199
     6  C    0.758697
     7  C   -0.583081
     8  C   -0.330037
     9  C   -0.173117
    10  N   -0.598934
    11  N   -0.797569
    12  O   -0.626492
    13  H    0.276484
    14  H    0.347809
    15  H    0.294606
    16  H    0.296098
    17  H    0.233441
    18  H    0.231125
    19  H    0.186502
    20  H    0.247163
    21  H    0.243482
    22  H    0.234966
    23  H    0.222705
    24  H    0.263035
    25  H    0.408986
 Sum of Mulliken atomic charges =   1.00000

 Dipole moment (field-independent basis, Debye):
    X=              7.2494    Y=              2.3350    Z=              2.7025  Tot=              8.0814
 Quadrupole moment (field-independent basis, Debye-Ang):
   XX=            -17.8827   YY=            -55.5733   ZZ=            -70.1642
   XY=             -9.3551   XZ=             -4.4418   YZ=             -1.2690

 Normal termination of Gaussian 09 at Sat Feb 17 20:58:39 2018.
