 Gaussian 09, Revision C.01,
 Gaussian 09:  AM64L-G09RevC.01 23-Sep-2011

 --------------------------------------------------------------
 #B3LYP/6-31G* Integral=(Grid=UltraFine) freq Opt pop=none SCRF
 --------------------------------------------------------------

 99/9=1/99;
 -----------------------------
 Optimization for frag37-conf1
 -----------------------------
 Charge =  0 Multiplicity = 1

 SCF Done:  E(RB3LYP) =  -805.713538080     A.U. after   13 cycles
 SCF Done:  E(RB3LYP) =  -805.721893990     A.U. after   12 cycles
 SCF Done:  E(RB3LYP) =  -805.711852294     A.U. after   12 cycles
 SCF Done:  E(RB3LYP) =  -805.722976442     A.U. after   13 cycles
 SCF Done:  E(RB3LYP) =  -805.723433842     A.U. after   12 cycles
 SCF Done:  E(RB3LYP) =  -805.725860890     A.U. after   11 cycles
 SCF Done:  E(RB3LYP) =  -805.725552343     A.U. after   12 cycles
 SCF Done:  E(RB3LYP) =  -805.726184304     A.U. after   11 cycles
 SCF Done:  E(RB3LYP) =  -805.726601920     A.U. after   11 cycles
 SCF Done:  E(RB3LYP) =  -805.726636294     A.U. after   12 cycles
 SCF Done:  E(RB3LYP) =  -805.727096939     A.U. after    8 cycles
 SCF Done:  E(RB3LYP) =  -805.727097577     A.U. after    7 cycles
 SCF Done:  E(RB3LYP) =  -805.727099369     A.U. after    8 cycles
 SCF Done:  E(RB3LYP) =  -805.727103702     A.U. after    8 cycles
 SCF Done:  E(RB3LYP) =  -805.727110076     A.U. after    8 cycles
 SCF Done:  E(RB3LYP) =  -805.727114904     A.U. after    8 cycles
 SCF Done:  E(RB3LYP) =  -805.727116838     A.U. after    8 cycles
 SCF Done:  E(RB3LYP) =  -805.727117727     A.U. after    7 cycles
 SCF Done:  E(RB3LYP) =  -805.727118246     A.U. after    7 cycles
 Optimization completed.
    -- Stationary point found.
 Normal termination of Gaussian 09 at Sat Feb 17 20:32:20 2018.

 --------------------------------------------------------------------
 #N Geom=AllCheck Guess=TCheck SCRF=Check GenChk RB3LYP/6-31G(d) Freq
 --------------------------------------------------------------------

 Structure from the checkpoint file:  frag37-conf1.chk
 -----------------------------
 Optimization for frag37-conf1
 -----------------------------
 Charge =  0 Multiplicity = 1

                         Standard orientation:
 ---------------------------------------------------------------------
 Center     Atomic      Atomic             Coordinates (Angstroms)
 Number     Number       Type             X           Y           Z
 ---------------------------------------------------------------------
      1          6           0        0.573700    1.047503   -0.450470
      2          6           0        3.139291   -1.410550    0.142436
      3          6           0       -4.029588   -0.507129    0.394908
      4          6           0       -3.029986   -1.566454    0.882784
      5          6           0       -3.308747    0.741268   -0.135811
      6          6           0       -2.011342   -1.919304   -0.214591
      7          6           0       -2.281391    0.379641   -1.222264
      8          6           0       -1.255500   -0.692026   -0.775404
      9          6           0        1.385704    3.332114   -0.485672
     10          6           0        0.265547    2.559912    1.555407
     11          6           0        1.688761   -1.813312   -0.275914
     12          6           0       -0.226503   -0.096622    0.212682
     13          7           0        0.704794    2.232257    0.199191
     14          7           0        0.769029   -1.129954    0.704809
     15          8           0        4.063980   -1.890084   -0.530678
     16          8           0        1.053314    0.847090   -1.573184
     17          8           0        3.183992   -0.619006    1.136420
     18          1           0       -4.642670   -0.937609   -0.410347
     19          1           0       -4.718602   -0.234009    1.203558
     20          1           0       -2.514378   -1.195200    1.780399
     21          1           0       -3.558952   -2.476170    1.191549
     22          1           0       -4.034990    1.451834   -0.549127
     23          1           0       -2.817435    1.262078    0.698570
     24          1           0       -1.318399   -2.694762    0.137453
     25          1           0       -2.547309   -2.375028   -1.057766
     26          1           0       -2.817070   -0.029816   -2.088902
     27          1           0       -1.766315    1.278261   -1.580642
     28          1           0       -0.694331   -1.000481   -1.663168
     29          1           0        0.782623    4.241531   -0.395865
     30          1           0        1.515592    3.075606   -1.534716
     31          1           0        2.366159    3.515260   -0.030438
     32          1           0        1.087457    3.057696    2.079880
     33          1           0       -0.002730    1.676075    2.129502
     34          1           0       -0.591950    3.242379    1.529002
     35          1           0        1.541294   -2.892298   -0.219945
     36          1           0        1.480529   -1.459844   -1.282901
     37          1           0       -0.735351    0.231513    1.115861
     38          1           0        0.276460   -1.816171    1.279147
     39          1           0        1.523640   -0.671224    1.311882
 ---------------------------------------------------------------------

 SCF Done:  E(RB3LYP) =  -805.727118246     A.U. after    1 cycles

 Isotropic polarizability for W=    0.000000      184.56 Bohr**3.
 End of Minotr Frequency-dependent properties file   721 does not exist.

                     1                      2                      3
                     A                      A                      A
 Frequencies --    22.1409                35.3285                41.1093
 Red. masses --     4.5589                 4.4796                 2.5126
 Frc consts  --     0.0013                 0.0033                 0.0025
 IR Inten    --    17.4094                 6.1048                 1.5970

                     4                      5                      6
                     A                      A                      A
 Frequencies --    51.1141                56.2859                83.8527
 Red. masses --     2.3741                 3.3546                 1.4883
 Frc consts  --     0.0037                 0.0063                 0.0062
 IR Inten    --     1.3418                10.9812                 2.0493

                     7                      8                      9
                     A                      A                      A
 Frequencies --    92.4398               103.2005               110.5745
 Red. masses --     6.0969                 2.2408                 1.8658
 Frc consts  --     0.0307                 0.0141                 0.0134
 IR Inten    --     2.5405                 0.5941                 1.1870

                    10                     11                     12
                     A                      A                      A
 Frequencies --   150.2019               200.6152               214.1376
 Red. masses --     3.5929                 3.6120                 2.9571
 Frc consts  --     0.0478                 0.0856                 0.0799
 IR Inten    --     5.0446                11.2525                 2.7283

                    13                     14                     15
                     A                      A                      A
 Frequencies --   223.1107               251.5859               267.8777
 Red. masses --     3.1468                 3.0636                 2.8263
 Frc consts  --     0.0923                 0.1142                 0.1195
 IR Inten    --    14.0384                 5.4898                29.9111

                    16                     17                     18
                     A                      A                      A
 Frequencies --   323.9186               337.9523               362.3993
 Red. masses --     2.3081                 2.5489                 2.3793
 Frc consts  --     0.1427                 0.1715                 0.1841
 IR Inten    --     7.6983                36.8843                29.8786

                    19                     20                     21
                     A                      A                      A
 Frequencies --   389.6647               413.0103               436.0468
 Red. masses --     3.3071                 2.4515                 2.6323
 Frc consts  --     0.2959                 0.2464                 0.2949
 IR Inten    --    20.6523                23.6163                 3.0993

                    22                     23                     24
                     A                      A                      A
 Frequencies --   461.9998               479.6843               499.4581
 Red. masses --     3.1109                 2.4593                 2.8527
 Frc consts  --     0.3912                 0.3334                 0.4193
 IR Inten    --     6.6389                 7.0992                27.3699

                    25                     26                     27
                     A                      A                      A
 Frequencies --   532.1681               577.7672               609.0139
 Red. masses --     2.8002                 3.0856                 2.6031
 Frc consts  --     0.4672                 0.6069                 0.5688
 IR Inten    --    54.8977                 5.6866                 6.4046

                    28                     29                     30
                     A                      A                      A
 Frequencies --   639.5738               688.1310               736.5237
 Red. masses --     3.5649                 6.1735                 5.8309
 Frc consts  --     0.8592                 1.7224                 1.8636
 IR Inten    --    16.8178                11.7190                 5.7451

                    31                     32                     33
                     A                      A                      A
 Frequencies --   790.6879               799.7483               826.0073
 Red. masses --     3.1926                 1.6250                 3.2200
 Frc consts  --     1.1760                 0.6124                 1.2944
 IR Inten    --    36.4876                 4.9778                26.3466

                    34                     35                     36
                     A                      A                      A
 Frequencies --   839.7352               867.4020               876.0584
 Red. masses --     1.7621                 2.6876                 3.8693
 Frc consts  --     0.7321                 1.1914                 1.7496
 IR Inten    --     1.7412                26.0867                48.4897

                    37                     38                     39
                     A                      A                      A
 Frequencies --   889.7784               898.7033               946.3474
 Red. masses --     2.5091                 2.7735                 1.5623
 Frc consts  --     1.1704                 1.3198                 0.8243
 IR Inten    --     8.9359                 9.6466                12.3432

                    40                     41                     42
                     A                      A                      A
 Frequencies --   952.7502               967.0840              1007.0520
 Red. masses --     1.8748                 2.9868                 2.5082
 Frc consts  --     1.0027                 1.6458                 1.4987
 IR Inten    --     6.0972                 6.7597                41.4169

                    43                     44                     45
                     A                      A                      A
 Frequencies --  1038.6212              1039.7386              1045.3817
 Red. masses --     2.5311                 2.7408                 1.8883
 Frc consts  --     1.6087                 1.7457                 1.2158
 IR Inten    --    15.5763                 2.9084                 5.5654

                    46                     47                     48
                     A                      A                      A
 Frequencies --  1053.3494              1066.0510              1082.2476
 Red. masses --     1.9995                 1.8388                 1.4642
 Frc consts  --     1.3071                 1.2313                 1.0104
 IR Inten    --    26.8370                51.3412                12.8403

                    49                     50                     51
                     A                      A                      A
 Frequencies --  1105.2395              1133.3496              1142.7459
 Red. masses --     1.7961                 1.2329                 1.0711
 Frc consts  --     1.2927                 0.9330                 0.8241
 IR Inten    --     0.7318                 8.2030                 1.9249

                    52                     53                     54
                     A                      A                      A
 Frequencies --  1156.9011              1169.3140              1179.4150
 Red. masses --     1.7593                 1.5849                 1.4601
 Frc consts  --     1.3873                 1.2768                 1.1966
 IR Inten    --    85.3448                12.9172                 2.0509

                    55                     56                     57
                     A                      A                      A
 Frequencies --  1185.8309              1241.4877              1268.6906
 Red. masses --     2.0287                 1.1253                 1.3740
 Frc consts  --     1.6808                 1.0219                 1.3030
 IR Inten    --    47.6005                24.5572                27.4865

                    58                     59                     60
                     A                      A                      A
 Frequencies --  1271.9653              1288.7147              1300.8847
 Red. masses --     3.4202                 1.2900                 1.2552
 Frc consts  --     3.2603                 1.2623                 1.2515
 IR Inten    --    59.7801                84.9955                 0.6180

                    61                     62                     63
                     A                      A                      A
 Frequencies --  1307.7958              1321.4567              1339.4071
 Red. masses --     1.2344                 1.4443                 1.4294
 Frc consts  --     1.2439                 1.4860                 1.5109
 IR Inten    --     2.9584                 8.8901                 5.7369

                    64                     65                     66
                     A                      A                      A
 Frequencies --  1360.1232              1362.0975              1369.6239
 Red. masses --     2.1826                 1.9033                 1.3205
 Frc consts  --     2.3789                 2.0806                 1.4594
 IR Inten    --   141.4886                86.0225                 0.6239

                    67                     68                     69
                     A                      A                      A
 Frequencies --  1391.9215              1398.8681              1402.0085
 Red. masses --     1.3389                 1.4037                 1.4562
 Frc consts  --     1.5283                 1.6184                 1.6864
 IR Inten    --   112.9669                 0.7889                39.7761

                    70                     71                     72
                     A                      A                      A
 Frequencies --  1404.4678              1406.7621              1426.5652
 Red. masses --     1.4205                 1.4245                 1.4079
 Frc consts  --     1.6509                 1.6609                 1.6881
 IR Inten    --    60.2535                 6.4979                23.5232

                    73                     74                     75
                     A                      A                      A
 Frequencies --  1444.3294              1450.8043              1469.6386
 Red. masses --     1.6157                 1.2027                 1.3519
 Frc consts  --     1.9858                 1.4915                 1.7203
 IR Inten    --   298.6299                87.3800                92.5199

                    76                     77                     78
                     A                      A                      A
 Frequencies --  1484.3726              1497.7711              1507.1227
 Red. masses --     1.2325                 1.1450                 1.0451
 Frc consts  --     1.6001                 1.5134                 1.3987
 IR Inten    --    42.0002                29.1893                 4.9636

                    79                     80                     81
                     A                      A                      A
 Frequencies --  1510.4650              1512.7853              1518.2228
 Red. masses --     1.0895                 1.0846                 1.0928
 Frc consts  --     1.4645                 1.4624                 1.4841
 IR Inten    --     4.0048                 0.2466                12.1144

                    82                     83                     84
                     A                      A                      A
 Frequencies --  1520.4826              1522.8136              1526.0067
 Red. masses --     1.0686                 1.0865                 1.0806
 Frc consts  --     1.4555                 1.4845                 1.4826
 IR Inten    --    28.8510                19.4496                 5.4709

                    85                     86                     87
                     A                      A                      A
 Frequencies --  1533.5554              1555.7976              1649.2542
 Red. masses --     1.0942                 1.3943                 1.0824
 Frc consts  --     1.5162                 1.9885                 1.7347
 IR Inten    --     1.7045                60.1342                89.0036

                    88                     89                     90
                     A                      A                      A
 Frequencies --  1709.5630              1772.7948              2751.9085
 Red. masses --     7.7708                 6.8551                 1.0760
 Frc consts  --    13.3809                12.6934                 4.8008
 IR Inten    --   578.7875               474.2904               810.8544

                    91                     92                     93
                     A                      A                      A
 Frequencies --  3022.7358              3026.5754              3030.9514
 Red. masses --     1.0708                 1.0663                 1.0640
 Frc consts  --     5.7643                 5.7547                 5.7589
 IR Inten    --    19.8453                36.3871                67.4336

                    94                     95                     96
                     A                      A                      A
 Frequencies --  3037.1338              3044.7645              3055.5154
 Red. masses --     1.0625                 1.0653                 1.0390
 Frc consts  --     5.7745                 5.8189                 5.7150
 IR Inten    --    49.0187                33.6551                34.3664

                    97                     98                     99
                     A                      A                      A
 Frequencies --  3060.8965              3066.6653              3075.1857
 Red. masses --     1.0408                 1.1002                 1.0935
 Frc consts  --     5.7453                 6.0963                 6.0925
 IR Inten    --    77.0683                80.0744                69.6129

                   100                    101                    102
                     A                      A                      A
 Frequencies --  3076.1158              3079.5084              3087.1263
 Red. masses --     1.0959                 1.1009                 1.0843
 Frc consts  --     6.1099                 6.1513                 6.0882
 IR Inten    --    90.7361               109.0277                31.2672

                   103                    104                    105
                     A                      A                      A
 Frequencies --  3089.6925              3113.1047              3117.6475
 Red. masses --     1.1000                 1.1034                 1.1042
 Frc consts  --     6.1868                 6.3004                 6.3233
 IR Inten    --    71.9630                56.8689                 3.2847

                   106                    107                    108
                     A                      A                      A
 Frequencies --  3135.6951              3170.9910              3202.9298
 Red. masses --     1.0626                 1.0887                 1.0928
 Frc consts  --     6.1560                 6.4500                 6.6052
 IR Inten    --    16.2223                16.2223                21.3224

                   109                    110                    111
                     A                      A                      A
 Frequencies --  3205.0870              3211.3917              3502.9461
 Red. masses --     1.0985                 1.1061                 1.0760
 Frc consts  --     6.6486                 6.7209                 7.7791
 IR Inten    --     4.7559                 1.3415                58.9797

 - Thermochemistry -
 -------------------
 Temperature   298.150 Kelvin.  Pressure   1.00000 Atm.
 Atom     1 has atomic number  6 and mass  12.00000

 Molecular mass:   242.16304 amu.
 Principal axes and moments of inertia in atomic units:
                           1         2         3
     Eigenvalues --  2961.927855407.024477059.43800
           X            0.99935   0.03606  -0.00176
           Y           -0.03604   0.99929   0.01055
           Z            0.00214  -0.01048   0.99994
 This molecule is an asymmetric top.
 Rotational symmetry number  1.
 Warning -- assumption of classical behavior for rotation
           may cause significant error
 Rotational temperatures (Kelvin)      0.02924     0.01602     0.01227
 Rotational constants (GHZ):           0.60931     0.33378     0.25565
 Zero-point vibrational energy     907149.9 (Joules/Mol)
                                  216.81402 (Kcal/Mol)
 Warning -- explicit consideration of  27 degrees of freedom as
           vibrations may cause significant error
 Vibrational temperatures:     31.86    50.83    59.15    73.54    80.98
          (Kelvin)            120.65   133.00   148.48   159.09   216.11
                              288.64   308.10   321.01   361.98   385.42
                              466.05   486.24   521.41   560.64   594.23
                              627.37   664.71   690.16   718.61   765.67
                              831.28   876.23   920.20   990.07  1059.69
                             1137.62  1150.66  1188.44  1208.19  1248.00
                             1260.45  1280.19  1293.03  1361.58  1370.79
                             1391.42  1448.92  1494.34  1495.95  1504.07
                             1515.53  1533.81  1557.11  1590.19  1630.64
                             1644.15  1664.52  1682.38  1696.91  1706.14
                             1786.22  1825.36  1830.07  1854.17  1871.68
                             1881.62  1901.28  1927.11  1956.91  1959.75
                             1970.58  2002.66  2012.66  2017.18  2020.71
                             2024.01  2052.51  2078.07  2087.38  2114.48
                             2135.68  2154.96  2168.41  2173.22  2176.56
                             2184.38  2187.63  2190.99  2195.58  2206.44
                             2238.44  2372.91  2459.68  2550.65  3959.38
                             4349.04  4354.56  4360.86  4369.75  4380.73
                             4396.20  4403.94  4412.24  4424.50  4425.84
                             4430.72  4441.68  4445.37  4479.06  4485.59
                             4511.56  4562.34  4608.30  4611.40  4620.47
                             5039.95

 Zero-point correction=                           0.345515 (Hartree/Particle)
 Thermal correction to Energy=                    0.363651
 Thermal correction to Enthalpy=                  0.364595
 Thermal correction to Gibbs Free Energy=         0.297007
 Sum of electronic and zero-point Energies=           -805.381603
 Sum of electronic and thermal Energies=              -805.363467
 Sum of electronic and thermal Enthalpies=            -805.362523
 Sum of electronic and thermal Free Energies=         -805.430111

                     E (Thermal)             CV                S
                      KCal/Mol        Cal/Mol-Kelvin    Cal/Mol-Kelvin
 Total                  228.195             66.557            142.252
 Electronic               0.000              0.000              0.000
 Translational            0.889              2.981             42.354
 Rotational               0.889              2.981             33.091
 Vibrational            226.417             60.595             66.806
 Vibration     1          0.593              1.985              6.432
 Vibration     2          0.594              1.982              5.505
 Vibration     3          0.594              1.981              5.205
 Vibration     4          0.595              1.977              4.774
 Vibration     5          0.596              1.975              4.583
 Vibration     6          0.601              1.960              3.799
 Vibration     7          0.602              1.955              3.608
 Vibration     8          0.605              1.947              3.393
 Vibration     9          0.606              1.941              3.259
 Vibration    10          0.618              1.902              2.670
 Vibration    11          0.638              1.839              2.127
 Vibration    12          0.644              1.819              2.008
 Vibration    13          0.649              1.806              1.934
 Vibration    14          0.664              1.760              1.719
 Vibration    15          0.673              1.732              1.610
 Vibration    16          0.708              1.628              1.290
 Vibration    17          0.718              1.600              1.222
 Vibration    18          0.736              1.550              1.112
 Vibration    19          0.758              1.492              1.001
 Vibration    20          0.777              1.442              0.916
 Vibration    21          0.796              1.392              0.839
 Vibration    22          0.820              1.334              0.760
 Vibration    23          0.836              1.295              0.711
 Vibration    24          0.855              1.251              0.659
 Vibration    25          0.887              1.179              0.582
 Vibration    26          0.934              1.079              0.490
 Vibration    27          0.968              1.013              0.434

 Normal termination of Gaussian 09 at Sat Feb 17 21:12:30 2018.
