 Gaussian 09, Revision C.01,
 Gaussian 09:  AM64L-G09RevC.01 23-Sep-2011

 ----------------------------------------------------------------------
 #HF/6-31G* Geom=AllCheck Guess=Read Pop=(MK,ReadRadii) Integral=(Grid=
 UltraFine) iop(6/33=2)
 ----------------------------------------------------------------------

 Structure from the checkpoint file:  frag37-conf1.chk
 -----------------------------
 Optimization for frag37-conf1
 -----------------------------
 Charge =  0 Multiplicity = 1

                         Standard orientation:
 ---------------------------------------------------------------------
 Center     Atomic      Atomic             Coordinates (Angstroms)
 Number     Number       Type             X           Y           Z
 ---------------------------------------------------------------------
      1          6           0        0.573700    1.047503   -0.450470
      2          6           0        3.139291   -1.410550    0.142436
      3          6           0       -4.029588   -0.507129    0.394908
      4          6           0       -3.029986   -1.566454    0.882784
      5          6           0       -3.308747    0.741268   -0.135811
      6          6           0       -2.011342   -1.919304   -0.214591
      7          6           0       -2.281391    0.379641   -1.222264
      8          6           0       -1.255500   -0.692026   -0.775404
      9          6           0        1.385704    3.332114   -0.485672
     10          6           0        0.265547    2.559912    1.555407
     11          6           0        1.688761   -1.813312   -0.275914
     12          6           0       -0.226503   -0.096622    0.212682
     13          7           0        0.704794    2.232257    0.199191
     14          7           0        0.769029   -1.129954    0.704809
     15          8           0        4.063980   -1.890084   -0.530678
     16          8           0        1.053314    0.847090   -1.573184
     17          8           0        3.183992   -0.619006    1.136420
     18          1           0       -4.642670   -0.937609   -0.410347
     19          1           0       -4.718602   -0.234009    1.203558
     20          1           0       -2.514378   -1.195200    1.780399
     21          1           0       -3.558952   -2.476170    1.191549
     22          1           0       -4.034990    1.451834   -0.549127
     23          1           0       -2.817435    1.262078    0.698570
     24          1           0       -1.318399   -2.694762    0.137453
     25          1           0       -2.547309   -2.375028   -1.057766
     26          1           0       -2.817070   -0.029816   -2.088902
     27          1           0       -1.766315    1.278261   -1.580642
     28          1           0       -0.694331   -1.000481   -1.663168
     29          1           0        0.782623    4.241531   -0.395865
     30          1           0        1.515592    3.075606   -1.534716
     31          1           0        2.366159    3.515260   -0.030438
     32          1           0        1.087457    3.057696    2.079880
     33          1           0       -0.002730    1.676075    2.129502
     34          1           0       -0.591950    3.242379    1.529002
     35          1           0        1.541294   -2.892298   -0.219945
     36          1           0        1.480529   -1.459844   -1.282901
     37          1           0       -0.735351    0.231513    1.115861
     38          1           0        0.276460   -1.816171    1.279147
     39          1           0        1.523640   -0.671224    1.311882
 ---------------------------------------------------------------------

 SCF Done:  E(RHF) =  -800.681865712     A.U. after   14 cycles

 The electronic state is 1-A.
 Alpha  occ. eigenvalues --  -20.54763 -20.47364 -20.45217 -15.69380 -15.62427
 Alpha  occ. eigenvalues --  -11.38610 -11.33562 -11.30951 -11.29807 -11.27673
 Alpha  occ. eigenvalues --  -11.27369 -11.27034 -11.26238 -11.25676 -11.25382
 Alpha  occ. eigenvalues --  -11.25177 -11.24980  -1.40108  -1.34808  -1.30691
 Alpha  occ. eigenvalues --   -1.26802  -1.23293  -1.15742  -1.07595  -1.03836
 Alpha  occ. eigenvalues --   -1.01259  -0.99548  -0.96881  -0.93430  -0.86865
 Alpha  occ. eigenvalues --   -0.85548  -0.80530  -0.76762  -0.75848  -0.75167
 Alpha  occ. eigenvalues --   -0.71616  -0.68674  -0.67854  -0.67464  -0.66133
 Alpha  occ. eigenvalues --   -0.64932  -0.64132  -0.63003  -0.60870  -0.60078
 Alpha  occ. eigenvalues --   -0.58883  -0.58733  -0.57980  -0.56537  -0.56308
 Alpha  occ. eigenvalues --   -0.55689  -0.54942  -0.54850  -0.54462  -0.53292
 Alpha  occ. eigenvalues --   -0.51742  -0.51615  -0.49507  -0.48155  -0.46568
 Alpha  occ. eigenvalues --   -0.46306  -0.44003  -0.39233  -0.38334  -0.35573
 Alpha  occ. eigenvalues --   -0.35105
 Alpha virt. eigenvalues --    0.13400   0.16234   0.18517   0.20053   0.22048
 Alpha virt. eigenvalues --    0.23678   0.24426   0.25515   0.26033   0.26528
 Alpha virt. eigenvalues --    0.27364   0.27633   0.28286   0.28921   0.29429

 Mulliken atomic charges:
              1
     1  C    0.832180
     2  C    0.806734
     3  C   -0.311951
     4  C   -0.318764
     5  C   -0.321887
     6  C   -0.341244
     7  C   -0.339262
     8  C   -0.176937
     9  C   -0.302721
    10  C   -0.286412
    11  C   -0.298546
    12  C   -0.084954
    13  N   -0.672033
    14  N   -0.825166
    15  O   -0.676763
    16  O   -0.633196
    17  O   -0.770537
    18  H    0.163906
    19  H    0.174006
    20  H    0.138734
    21  H    0.182052
    22  H    0.180581
    23  H    0.144228
    24  H    0.153796
    25  H    0.188434
    26  H    0.180250
    27  H    0.196881
    28  H    0.227316
    29  H    0.165950
    30  H    0.243139
    31  H    0.196030
    32  H    0.206862
    33  H    0.174489
    34  H    0.182328
    35  H    0.212654
    36  H    0.275299
    37  H    0.214944
    38  H    0.425779
    39  H    0.493801
 Sum of Mulliken atomic charges =   0.00000

 Dipole moment (field-independent basis, Debye):
    X=            -13.0406    Y=              2.6713    Z=              3.2545  Tot=             13.7035
 Quadrupole moment (field-independent basis, Debye-Ang):
   XX=           -151.2595   YY=            -92.4660   ZZ=           -106.3499
   XY=             17.8169   XZ=              1.7907   YZ=              0.0060

 Normal termination of Gaussian 09 at Sun Feb 18 17:08:47 2018.
