 Gaussian 09, Revision C.01,
 Gaussian 09:  AM64L-G09RevC.01 23-Sep-2011

 ----------------------------------------------------------------------
 #HF/6-31G* Geom=AllCheck Guess=Read Pop=(MK,ReadRadii) Integral=(Grid=
 UltraFine) iop(6/33=2)
 ----------------------------------------------------------------------

 Structure from the checkpoint file:  frag24-conf0.chk
 -----------------------------
 Optimization for frag24-conf0
 -----------------------------
 Charge =  0 Multiplicity = 1

                         Standard orientation:
 ---------------------------------------------------------------------
 Center     Atomic      Atomic             Coordinates (Angstroms)
 Number     Number       Type             X           Y           Z
 ---------------------------------------------------------------------
      1          6           0        1.640682    0.479867    0.204540
      2          6           0        0.335368   -1.314354    1.378869
      3          6           0        4.019784    0.822584   -0.158947
      4          6           0        3.032995   -1.288879   -0.928798
      5          6           0       -3.020579    1.075338   -1.290741
      6          6           0        0.382451   -0.408929    0.131691
      7          7           0       -0.733228    0.544225    0.022017
      8          7           0        2.819612    0.005474   -0.300162
      9          8           0        1.555434    1.573871    0.762831
     10          8           0       -3.021440    0.176321    1.191479
     11          8           0       -2.224163   -1.383372   -0.665711
     12         16           0       -2.306516   -0.042922   -0.071647
     13          1           0        0.326812   -0.703522    2.287371
     14          1           0       -0.562420   -1.936596    1.357751
     15          1           0        1.210398   -1.973623    1.417139
     16          1           0        4.762742    0.308167    0.464541
     17          1           0        3.744463    1.767094    0.306819
     18          1           0        4.464884    1.010812   -1.143993
     19          1           0        3.450242   -1.155732   -1.935453
     20          1           0        2.108003   -1.854947   -1.015314
     21          1           0        3.745925   -1.884887   -0.343160
     22          1           0       -4.068032    0.788838   -1.410718
     23          1           0       -2.951568    2.099313   -0.918267
     24          1           0       -2.477629    0.965074   -2.229952
     25          1           0        0.355104   -1.021408   -0.770078
     26          1           0       -0.632209    1.301959    0.698196
 ---------------------------------------------------------------------

 SCF Done:  E(RHF) =  -966.281045517     A.U. after   13 cycles

 The electronic state is 1-A.
 Alpha  occ. eigenvalues --  -92.21024 -20.55614 -20.55394 -20.53722 -15.61068
 Alpha  occ. eigenvalues --  -15.60254 -11.36978 -11.30104 -11.28536 -11.27587
 Alpha  occ. eigenvalues --  -11.26625 -11.23476  -9.18135  -6.86727  -6.86703
 Alpha  occ. eigenvalues --   -6.86613  -1.45071  -1.39208  -1.33212  -1.25784
 Alpha  occ. eigenvalues --   -1.23416  -1.06119  -1.01833  -0.98606  -0.95523
 Alpha  occ. eigenvalues --   -0.89186  -0.82371  -0.75950  -0.73697  -0.68580
 Alpha  occ. eigenvalues --   -0.68057  -0.66938  -0.66448  -0.65170  -0.61673
 Alpha  occ. eigenvalues --   -0.61406  -0.60197  -0.59428  -0.58430  -0.57668
 Alpha  occ. eigenvalues --   -0.57024  -0.55563  -0.54624  -0.52861  -0.52213
 Alpha  occ. eigenvalues --   -0.50549  -0.49017  -0.46503  -0.45218  -0.43536
 Alpha  occ. eigenvalues --   -0.41452  -0.38331
 Alpha virt. eigenvalues --    0.17602   0.20815   0.22322   0.23839   0.24913
 Alpha virt. eigenvalues --    0.25778   0.26553   0.27551   0.28213   0.28623
 Alpha virt. eigenvalues --    0.29263   0.30055   0.30515   0.31492   0.31880

 Mulliken atomic charges:
              1
     1  C    0.817605
     2  C   -0.515137
     3  C   -0.298456
     4  C   -0.287283
     5  C   -0.698020
     6  C   -0.064403
     7  N   -0.903155
     8  N   -0.673131
     9  O   -0.652549
    10  O   -0.680717
    11  O   -0.711921
    12  S    1.606806
    13  H    0.193801
    14  H    0.223340
    15  H    0.170025
    16  H    0.167950
    17  H    0.242434
    18  H    0.168656
    19  H    0.182666
    20  H    0.191816
    21  H    0.179584
    22  H    0.231179
    23  H    0.223103
    24  H    0.226445
    25  H    0.227805
    26  H    0.431557
 Sum of Mulliken atomic charges =   0.00000

 Dipole moment (field-independent basis, Debye):
    X=              3.9135    Y=             -0.0471    Z=             -3.1529  Tot=              5.0257
 Quadrupole moment (field-independent basis, Debye-Ang):
   XX=            -74.8233   YY=            -83.7993   ZZ=            -81.4976
   XY=            -13.6582   XZ=              4.9716   YZ=             -4.6294

 Normal termination of Gaussian 09 at Sat Feb 17 21:00:38 2018.
