 Gaussian 09, Revision C.01,
 Gaussian 09:  AM64L-G09RevC.01 23-Sep-2011

 ---------------------------------------------------------
 #B3LYP/6-31G* Integral=(Grid=UltraFine) freq Opt pop=none
 ---------------------------------------------------------

 99/9=1/99;
 -----------------------------
 Optimization for frag24-conf0
 -----------------------------
 Charge =  0 Multiplicity = 1

 SCF Done:  E(RB3LYP) =  -970.369968167     A.U. after   15 cycles
 SCF Done:  E(RB3LYP) =  -970.376237762     A.U. after   13 cycles
 SCF Done:  E(RB3LYP) =  -970.376777421     A.U. after   12 cycles
 SCF Done:  E(RB3LYP) =  -970.376861414     A.U. after   12 cycles
 SCF Done:  E(RB3LYP) =  -970.377158489     A.U. after   12 cycles
 SCF Done:  E(RB3LYP) =  -970.377190397     A.U. after   12 cycles
 SCF Done:  E(RB3LYP) =  -970.377286941     A.U. after   11 cycles
 SCF Done:  E(RB3LYP) =  -970.377340980     A.U. after   11 cycles
 SCF Done:  E(RB3LYP) =  -970.377371455     A.U. after   11 cycles
 SCF Done:  E(RB3LYP) =  -970.377387477     A.U. after   11 cycles
 SCF Done:  E(RB3LYP) =  -970.377404293     A.U. after    9 cycles
 SCF Done:  E(RB3LYP) =  -970.377408973     A.U. after    9 cycles
 SCF Done:  E(RB3LYP) =  -970.377416311     A.U. after   10 cycles
 SCF Done:  E(RB3LYP) =  -970.377427258     A.U. after   10 cycles
 SCF Done:  E(RB3LYP) =  -970.377431370     A.U. after   10 cycles
 SCF Done:  E(RB3LYP) =  -970.377431488     A.U. after    8 cycles
 SCF Done:  E(RB3LYP) =  -970.377431547     A.U. after    7 cycles
 SCF Done:  E(RB3LYP) =  -970.377431569     A.U. after    6 cycles
 SCF Done:  E(RB3LYP) =  -970.377431576     A.U. after    6 cycles
 Optimization completed.
    -- Stationary point found.
 Normal termination of Gaussian 09 at Fri Feb 16 19:45:29 2018.

 --------------------------------------------------------------------
 #N Geom=AllCheck Guess=TCheck SCRF=Check GenChk RB3LYP/6-31G(d) Freq
 --------------------------------------------------------------------

 Structure from the checkpoint file:  frag24-conf0.chk
 -----------------------------
 Optimization for frag24-conf0
 -----------------------------
 Charge =  0 Multiplicity = 1

                         Standard orientation:
 ---------------------------------------------------------------------
 Center     Atomic      Atomic             Coordinates (Angstroms)
 Number     Number       Type             X           Y           Z
 ---------------------------------------------------------------------
      1          6           0        1.640682    0.479867    0.204540
      2          6           0        0.335368   -1.314354    1.378869
      3          6           0        4.019784    0.822584   -0.158947
      4          6           0        3.032995   -1.288879   -0.928798
      5          6           0       -3.020579    1.075338   -1.290741
      6          6           0        0.382451   -0.408929    0.131691
      7          7           0       -0.733228    0.544225    0.022017
      8          7           0        2.819612    0.005474   -0.300162
      9          8           0        1.555434    1.573871    0.762831
     10          8           0       -3.021440    0.176321    1.191479
     11          8           0       -2.224163   -1.383372   -0.665711
     12         16           0       -2.306516   -0.042922   -0.071647
     13          1           0        0.326812   -0.703522    2.287371
     14          1           0       -0.562420   -1.936596    1.357751
     15          1           0        1.210398   -1.973623    1.417139
     16          1           0        4.762742    0.308167    0.464541
     17          1           0        3.744463    1.767094    0.306819
     18          1           0        4.464884    1.010812   -1.143993
     19          1           0        3.450242   -1.155732   -1.935453
     20          1           0        2.108003   -1.854947   -1.015314
     21          1           0        3.745925   -1.884887   -0.343160
     22          1           0       -4.068032    0.788838   -1.410718
     23          1           0       -2.951568    2.099313   -0.918267
     24          1           0       -2.477629    0.965074   -2.229952
     25          1           0        0.355104   -1.021408   -0.770078
     26          1           0       -0.632209    1.301959    0.698196
 ---------------------------------------------------------------------

 SCF Done:  E(RB3LYP) =  -970.377431576     A.U. after    1 cycles

 Isotropic polarizability for W=    0.000000      102.65 Bohr**3.
 End of Minotr Frequency-dependent properties file   721 does not exist.

                     1                      2                      3
                     A                      A                      A
 Frequencies --    26.2675                40.1622                62.1243
 Red. masses --     4.2349                 2.7349                 1.9379
 Frc consts  --     0.0017                 0.0026                 0.0044
 IR Inten    --     4.8221                 1.8721                 0.5841

                     4                      5                      6
                     A                      A                      A
 Frequencies --    80.2014                89.5553               121.4411
 Red. masses --     2.3899                 3.1682                 1.8438
 Frc consts  --     0.0091                 0.0150                 0.0160
 IR Inten    --     2.7847                 1.7566                 7.2517

                     7                      8                      9
                     A                      A                      A
 Frequencies --   140.0031               212.7628               215.0668
 Red. masses --     1.6094                 3.8222                 1.2088
 Frc consts  --     0.0186                 0.1019                 0.0329
 IR Inten    --     3.7249                 0.1684                 0.0093

                    10                     11                     12
                     A                      A                      A
 Frequencies --   238.1747               239.5828               255.6581
 Red. masses --     1.4005                 2.2604                 3.2633
 Frc consts  --     0.0468                 0.0764                 0.1257
 IR Inten    --     0.5104                 1.5167                 2.0172

                    13                     14                     15
                     A                      A                      A
 Frequencies --   262.9410               293.4716               314.0742
 Red. masses --     2.0999                 3.7533                 3.3516
 Frc consts  --     0.0855                 0.1905                 0.1948
 IR Inten    --     0.8093                 7.9732                 1.8663

                    16                     17                     18
                     A                      A                      A
 Frequencies --   383.4206               397.8386               423.0681
 Red. masses --     3.4587                 3.4844                 2.7283
 Frc consts  --     0.2996                 0.3249                 0.2877
 IR Inten    --    30.7401                 7.7497                 9.2983

                    19                     20                     21
                     A                      A                      A
 Frequencies --   473.7029               499.8922               542.7630
 Red. masses --     4.9761                 7.1928                 4.5116
 Frc consts  --     0.6579                 1.0590                 0.7831
 IR Inten    --    25.6058                51.2671                25.4878

                    22                     23                     24
                     A                      A                      A
 Frequencies --   619.5251               659.8956               732.8014
 Red. masses --     4.5310                 2.1263                 4.4725
 Frc consts  --     1.0246                 0.5455                 1.4150
 IR Inten    --     5.2523                86.8393                10.6431

                    25                     26                     27
                     A                      A                      A
 Frequencies --   743.4936               789.6581               866.7122
 Red. masses --     4.8070                 3.9094                 1.8257
 Frc consts  --     1.5656                 1.4363                 0.8080
 IR Inten    --     9.2374                78.8333                30.8543

                    28                     29                     30
                     A                      A                      A
 Frequencies --   936.1890               973.6590               997.9847
 Red. masses --     2.9333                 2.5953                 1.4103
 Frc consts  --     1.5147                 1.4496                 0.8276
 IR Inten    --    44.6886                 7.3237                22.0704

                    31                     32                     33
                     A                      A                      A
 Frequencies --   999.3469              1075.8378              1086.0454
 Red. masses --     1.4209                 1.6058                 2.1108
 Frc consts  --     0.8361                 1.0950                 1.4669
 IR Inten    --    45.5482                 1.4017                 8.2266

                    34                     35                     36
                     A                      A                      A
 Frequencies --  1087.8736              1126.0824              1138.2005
 Red. masses --     1.6519                 4.2255                 1.2459
 Frc consts  --     1.1518                 3.1569                 0.9510
 IR Inten    --    18.2040               264.7316                 3.7220

                    37                     38                     39
                     A                      A                      A
 Frequencies --  1143.7652              1186.7458              1199.3689
 Red. masses --     2.6458                 1.3776                 2.1972
 Frc consts  --     2.0393                 1.1431                 1.8622
 IR Inten    --   110.3866                 0.7412                19.8496

                    40                     41                     42
                     A                      A                      A
 Frequencies --  1278.4429              1300.7958              1328.0693
 Red. masses --     3.7547                 2.3067                 3.1535
 Frc consts  --     3.6157                 2.2996                 3.2770
 IR Inten    --    23.4819                83.4612               113.0991

                    43                     44                     45
                     A                      A                      A
 Frequencies --  1356.3245              1382.2209              1427.3290
 Red. masses --     1.4263                 1.2126                 1.3774
 Frc consts  --     1.5459                 1.3650                 1.6534
 IR Inten    --    66.7851                 8.7143                64.2163

                    46                     47                     48
                     A                      A                      A
 Frequencies --  1438.1317              1451.6819              1474.1410
 Red. masses --     1.4498                 1.1830                 1.5870
 Frc consts  --     1.7666                 1.4689                 2.0319
 IR Inten    --   188.2294                 6.9771                18.2970

                    49                     50                     51
                     A                      A                      A
 Frequencies --  1484.5685              1487.1295              1501.1906
 Red. masses --     1.0491                 1.0836                 1.1672
 Frc consts  --     1.3623                 1.4120                 1.5498
 IR Inten    --     4.5663                 2.6744                15.4549

                    52                     53                     54
                     A                      A                      A
 Frequencies --  1509.9532              1523.9639              1530.5300
 Red. masses --     1.0435                 1.0667                 1.0651
 Frc consts  --     1.4017                 1.4596                 1.4700
 IR Inten    --     2.7165                 2.9120                 5.9043

                    55                     56                     57
                     A                      A                      A
 Frequencies --  1531.9373              1532.4828              1567.8401
 Red. masses --     1.0504                 1.0459                 1.2744
 Frc consts  --     1.4524                 1.4471                 1.8457
 IR Inten    --    18.9445                14.3095                31.8293

                    58                     59                     60
                     A                      A                      A
 Frequencies --  1742.9285              3032.5983              3040.4465
 Red. masses --     9.0344                 1.0407                 1.0404
 Frc consts  --    16.1700                 5.6391                 5.6667
 IR Inten    --   270.3808                25.4286                83.8601

                    61                     62                     63
                     A                      A                      A
 Frequencies --  3058.9682              3077.8055              3087.1469
 Red. masses --     1.0371                 1.1041                 1.0296
 Frc consts  --     5.7178                 6.1625                 5.7816
 IR Inten    --    17.2452                37.0676                 0.5482

                    64                     65                     66
                     A                      A                      A
 Frequencies --  3087.6183              3122.6761              3136.4885
 Red. masses --     1.1047                 1.0963                 1.0901
 Frc consts  --     6.2048                 6.2983                 6.3184
 IR Inten    --    24.7614                 4.0822                34.2317

                    67                     68                     69
                     A                      A                      A
 Frequencies --  3159.5797              3183.1728              3197.8446
 Red. masses --     1.1027                 1.1064                 1.0947
 Frc consts  --     6.4860                 6.6049                 6.5960
 IR Inten    --     5.7849                 1.0882                 3.0093

                    70                     71                     72
                     A                      A                      A
 Frequencies --  3198.4093              3199.3023              3504.9343
 Red. masses --     1.1079                 1.0944                 1.0739
 Frc consts  --     6.6777                 6.5998                 7.7731
 IR Inten    --     1.1636                 8.5644                61.2094

 - Thermochemistry -
 -------------------
 Temperature   298.150 Kelvin.  Pressure   1.00000 Atm.
 Atom     1 has atomic number  6 and mass  12.00000

 Molecular mass:   194.07251 amu.
 Principal axes and moments of inertia in atomic units:
                           1         2         3
     Eigenvalues --  1039.182334434.383384626.49893
           X            0.99984  -0.01727   0.00478
           Y            0.01771   0.99312  -0.11574
           Z           -0.00275   0.11581   0.99327
 This molecule is an asymmetric top.
 Rotational symmetry number  1.
 Warning -- assumption of classical behavior for rotation
           may cause significant error
 Rotational temperatures (Kelvin)      0.08335     0.01953     0.01872
 Rotational constants (GHZ):           1.73669     0.40699     0.39009
 Zero-point vibrational energy     565905.5 (Joules/Mol)
                                  135.25466 (Kcal/Mol)
 Warning -- explicit consideration of  22 degrees of freedom as
           vibrations may cause significant error
 Vibrational temperatures:     37.79    57.78    89.38   115.39   128.85
          (Kelvin)            174.73   201.43   306.12   309.43   342.68
                              344.71   367.83   378.31   422.24   451.88
                              551.66   572.40   608.70   681.55   719.23
                              780.91   891.36   949.44  1054.34  1069.72
                             1136.14  1247.00  1346.97  1400.88  1435.88
                             1437.84  1547.89  1562.58  1565.21  1620.18
                             1637.61  1645.62  1707.46  1725.62  1839.39
                             1871.55  1910.79  1951.45  1988.71  2053.61
                             2069.15  2088.64  2120.96  2135.96  2139.65
                             2159.88  2172.48  2192.64  2202.09  2204.11
                             2204.90  2255.77  2507.68  4363.23  4374.52
                             4401.17  4428.27  4441.71  4442.39  4492.83
                             4512.70  4545.92  4579.87  4600.98  4601.79
                             4603.08  5042.81

 Zero-point correction=                           0.215542 (Hartree/Particle)
 Thermal correction to Energy=                    0.230335
 Thermal correction to Enthalpy=                  0.231280
 Thermal correction to Gibbs Free Energy=         0.172500
 Sum of electronic and zero-point Energies=           -970.161890
 Sum of electronic and thermal Energies=              -970.147096
 Sum of electronic and thermal Enthalpies=            -970.146152
 Sum of electronic and thermal Free Energies=         -970.204932

                     E (Thermal)             CV                S
                      KCal/Mol        Cal/Mol-Kelvin    Cal/Mol-Kelvin
 Total                  144.538             51.810            123.713
 Electronic               0.000              0.000              0.000
 Translational            0.889              2.981             41.695
 Rotational               0.889              2.981             31.434
 Vibrational            142.760             45.849             50.585
 Vibration     1          0.593              1.985              6.093
 Vibration     2          0.594              1.981              5.251
 Vibration     3          0.597              1.972              4.389
 Vibration     4          0.600              1.963              3.886
 Vibration     5          0.602              1.957              3.670
 Vibration     6          0.609              1.931              3.077
 Vibration     7          0.615              1.913              2.804
 Vibration     8          0.644              1.821              2.020
 Vibration     9          0.645              1.818              2.000
 Vibration    10          0.656              1.782              1.816
 Vibration    11          0.657              1.780              1.806
 Vibration    12          0.666              1.753              1.691
 Vibration    13          0.670              1.741              1.642
 Vibration    14          0.688              1.686              1.454
 Vibration    15          0.702              1.647              1.341
 Vibration    16          0.753              1.506              1.026
 Vibration    17          0.764              1.475              0.971
 Vibration    18          0.785              1.420              0.882
 Vibration    19          0.830              1.308              0.727
 Vibration    20          0.855              1.250              0.658
 Vibration    21          0.898              1.156              0.559
 Vibration    22          0.979              0.991              0.417

 Normal termination of Gaussian 09 at Fri Feb 16 20:06:25 2018.
