 Gaussian 09, Revision C.01,
 Gaussian 09:  AM64L-G09RevC.01 23-Sep-2011

 ----------------------------------------------------------------------
 #HF/6-31G* Geom=AllCheck Guess=Read Pop=(MK,ReadRadii) Integral=(Grid=
 UltraFine) iop(6/33=2)
 ----------------------------------------------------------------------

 Structure from the checkpoint file:  frag11-conf1.chk
 -----------------------------
 Optimization for frag11-conf1
 -----------------------------
 Charge =  1 Multiplicity = 1

                         Standard orientation:
 ---------------------------------------------------------------------
 Center     Atomic      Atomic             Coordinates (Angstroms)
 Number     Number       Type             X           Y           Z
 ---------------------------------------------------------------------
      1          6           0       -4.316627    0.470008   -0.959443
      2          6           0        2.584412    2.973830   -0.683982
      3          6           0       -3.298926   -0.282897   -1.548364
      4          6           0       -4.073494    1.137946    0.240585
      5          6           0        2.313338    2.961619    0.684809
      6          6           0        1.871877    2.127213   -1.537062
      7          6           0       -2.040546   -0.364470   -0.950309
      8          6           0       -2.816960    1.054545    0.842832
      9          6           0        1.341053    2.099669    1.194185
     10          6           0        0.899691    1.266137   -1.025920
     11          6           0       -1.778078    0.313052    0.254242
     12          6           0        0.630390    1.235242    0.349235
     13          6           0        0.801083   -1.958436    0.134648
     14          6           0        2.665841   -2.568159   -1.277518
     15          6           0        3.058745   -0.945880    0.536702
     16          6           0       -0.420421    0.310765    0.963044
     17          6           0        0.135275   -1.133997    1.278066
     18          7           0        2.097350   -1.801346   -0.160282
     19          7           0       -1.041908   -2.014399    1.663456
     20          8           0        0.057972   -2.776588   -0.440437
     21          1           0       -5.292497    0.532009   -1.431481
     22          1           0        3.333742    3.648958   -1.086426
     23          1           0       -3.481885   -0.811738   -2.479140
     24          1           0       -4.857026    1.725604    0.709541
     25          1           0        2.847348    3.629032    1.354745
     26          1           0        2.061395    2.147313   -2.606449
     27          1           0       -1.278015   -0.974075   -1.422161
     28          1           0       -2.634151    1.594036    1.769836
     29          1           0        1.126571    2.109431    2.261275
     30          1           0        0.337371    0.638623   -1.709644
     31          1           0        3.099853   -1.875536   -2.005764
     32          1           0        1.882993   -3.159339   -1.747010
     33          1           0        3.454304   -3.229743   -0.903806
     34          1           0        3.418726   -0.163161   -0.137499
     35          1           0        3.906680   -1.559218    0.859358
     36          1           0        2.620363   -0.462182    1.405724
     37          1           0       -0.615236    0.715168    1.963943
     38          1           0        0.790688   -1.069902    2.146863
     39          1           0       -1.122973   -2.652702    0.821818
     40          1           0       -1.907140   -1.465967    1.755237
     41          1           0       -0.882902   -2.570816    2.507817
 ---------------------------------------------------------------------

 SCF Done:  E(RHF) =  -839.542388170     A.U. after   14 cycles

 The electronic state is 1-A.
 Alpha  occ. eigenvalues --  -20.68159 -15.84042 -15.74416 -11.51492 -11.47163
 Alpha  occ. eigenvalues --  -11.40773 -11.39050 -11.37516 -11.37078 -11.36521
 Alpha  occ. eigenvalues --  -11.35573 -11.35291 -11.35074 -11.34867 -11.34764
 Alpha  occ. eigenvalues --  -11.34724 -11.34542 -11.34429 -11.34379 -11.34228
 Alpha  occ. eigenvalues --   -1.54028  -1.45278  -1.38890  -1.28353  -1.25875
 Alpha  occ. eigenvalues --   -1.21074  -1.14212  -1.12698  -1.12455  -1.12050
 Alpha  occ. eigenvalues --   -1.09763  -1.07394  -1.02633  -0.95091  -0.93729
 Alpha  occ. eigenvalues --   -0.93406  -0.93197  -0.91849  -0.89058  -0.87446
 Alpha  occ. eigenvalues --   -0.82521  -0.81701  -0.80657  -0.79844  -0.78793
 Alpha  occ. eigenvalues --   -0.76968  -0.75902  -0.74200  -0.73982  -0.72777
 Alpha  occ. eigenvalues --   -0.71284  -0.70014  -0.69898  -0.69129  -0.68681
 Alpha  occ. eigenvalues --   -0.68402  -0.68108  -0.66302  -0.66057  -0.65700
 Alpha  occ. eigenvalues --   -0.62209  -0.60997  -0.60317  -0.59919  -0.59826
 Alpha  occ. eigenvalues --   -0.58777  -0.57857  -0.51281  -0.45423  -0.44755
 Alpha  occ. eigenvalues --   -0.44229  -0.43348
 Alpha virt. eigenvalues --    0.00012   0.01856   0.02438   0.02707   0.03270
 Alpha virt. eigenvalues --    0.04687   0.09228   0.10549   0.12486   0.13343
 Alpha virt. eigenvalues --    0.14331   0.15277   0.15844   0.15964   0.18573

 Mulliken atomic charges:
              1
     1  C   -0.192931
     2  C   -0.197949
     3  C   -0.196895
     4  C   -0.191137
     5  C   -0.195825
     6  C   -0.205333
     7  C   -0.245075
     8  C   -0.228787
     9  C   -0.235136
    10  C   -0.214223
    11  C   -0.041933
    12  C    0.030473
    13  C    0.824803
    14  C   -0.317095
    15  C   -0.303410
    16  C   -0.234900
    17  C   -0.113570
    18  N   -0.653725
    19  N   -0.907389
    20  O   -0.683136
    21  H    0.239568
    22  H    0.236361
    23  H    0.236693
    24  H    0.237387
    25  H    0.233611
    26  H    0.232431
    27  H    0.247456
    28  H    0.221816
    29  H    0.209166
    30  H    0.225181
    31  H    0.200602
    32  H    0.251195
    33  H    0.201293
    34  H    0.224229
    35  H    0.207618
    36  H    0.186170
    37  H    0.221981
    38  H    0.255329
    39  H    0.517812
    40  H    0.463115
    41  H    0.454159
 Sum of Mulliken atomic charges =   1.00000

 Dipole moment (field-independent basis, Debye):
    X=              0.4153    Y=             -3.7711    Z=              5.5517  Tot=              6.7242
 Quadrupole moment (field-independent basis, Debye-Ang):
   XX=            -79.6824   YY=           -101.5401   ZZ=            -92.7787
   XY=              2.4419   XZ=             -5.5159   YZ=             -9.0556

 Normal termination of Gaussian 09 at Sat Feb 17 20:59:58 2018.
