 Gaussian 09, Revision C.01,
 Gaussian 09:  AM64L-G09RevC.01 23-Sep-2011

 ---------------------------------------------------------
 #B3LYP/6-31G* Integral=(Grid=UltraFine) freq Opt pop=none
 ---------------------------------------------------------

 99/9=1/99;
 -----------------------------
 Optimization for frag11-conf1
 -----------------------------
 Charge =  1 Multiplicity = 1

 SCF Done:  E(RB3LYP) =  -844.955141438     A.U. after   15 cycles
 SCF Done:  E(RB3LYP) =  -844.963097365     A.U. after   14 cycles
 SCF Done:  E(RB3LYP) =  -844.961526269     A.U. after   14 cycles
 SCF Done:  E(RB3LYP) =  -844.964763665     A.U. after   13 cycles
 SCF Done:  E(RB3LYP) =  -844.964006477     A.U. after   13 cycles
 SCF Done:  E(RB3LYP) =  -844.965371525     A.U. after   13 cycles
 SCF Done:  E(RB3LYP) =  -844.965434857     A.U. after   13 cycles
 SCF Done:  E(RB3LYP) =  -844.966838937     A.U. after   12 cycles
 SCF Done:  E(RB3LYP) =  -844.967620119     A.U. after   12 cycles
 SCF Done:  E(RB3LYP) =  -844.968538405     A.U. after   12 cycles
 SCF Done:  E(RB3LYP) =  -844.968955539     A.U. after   12 cycles
 SCF Done:  E(RB3LYP) =  -844.968983584     A.U. after   12 cycles
 SCF Done:  E(RB3LYP) =  -844.968996072     A.U. after   11 cycles
 SCF Done:  E(RB3LYP) =  -844.969002394     A.U. after   10 cycles
 SCF Done:  E(RB3LYP) =  -844.969003965     A.U. after    8 cycles
 SCF Done:  E(RB3LYP) =  -844.969005029     A.U. after    8 cycles
 SCF Done:  E(RB3LYP) =  -844.969005500     A.U. after    8 cycles
 SCF Done:  E(RB3LYP) =  -844.969005823     A.U. after    8 cycles
 SCF Done:  E(RB3LYP) =  -844.969005957     A.U. after    7 cycles
 Optimization completed.
    -- Stationary point found.
 Normal termination of Gaussian 09 at Fri Feb 16 20:04:03 2018.

 --------------------------------------------------------------------
 #N Geom=AllCheck Guess=TCheck SCRF=Check GenChk RB3LYP/6-31G(d) Freq
 --------------------------------------------------------------------

 Structure from the checkpoint file:  frag11-conf1.chk
 -----------------------------
 Optimization for frag11-conf1
 -----------------------------
 Charge =  1 Multiplicity = 1

                         Standard orientation:
 ---------------------------------------------------------------------
 Center     Atomic      Atomic             Coordinates (Angstroms)
 Number     Number       Type             X           Y           Z
 ---------------------------------------------------------------------
      1          6           0       -4.316627    0.470008   -0.959443
      2          6           0        2.584412    2.973830   -0.683982
      3          6           0       -3.298926   -0.282897   -1.548364
      4          6           0       -4.073494    1.137946    0.240585
      5          6           0        2.313338    2.961619    0.684809
      6          6           0        1.871877    2.127213   -1.537062
      7          6           0       -2.040546   -0.364470   -0.950309
      8          6           0       -2.816960    1.054545    0.842832
      9          6           0        1.341053    2.099669    1.194185
     10          6           0        0.899691    1.266137   -1.025920
     11          6           0       -1.778078    0.313052    0.254242
     12          6           0        0.630390    1.235242    0.349235
     13          6           0        0.801083   -1.958436    0.134648
     14          6           0        2.665841   -2.568159   -1.277518
     15          6           0        3.058745   -0.945880    0.536702
     16          6           0       -0.420421    0.310765    0.963044
     17          6           0        0.135275   -1.133997    1.278066
     18          7           0        2.097350   -1.801346   -0.160282
     19          7           0       -1.041908   -2.014399    1.663456
     20          8           0        0.057972   -2.776588   -0.440437
     21          1           0       -5.292497    0.532009   -1.431481
     22          1           0        3.333742    3.648958   -1.086426
     23          1           0       -3.481885   -0.811738   -2.479140
     24          1           0       -4.857026    1.725604    0.709541
     25          1           0        2.847348    3.629032    1.354745
     26          1           0        2.061395    2.147313   -2.606449
     27          1           0       -1.278015   -0.974075   -1.422161
     28          1           0       -2.634151    1.594036    1.769836
     29          1           0        1.126571    2.109431    2.261275
     30          1           0        0.337371    0.638623   -1.709644
     31          1           0        3.099853   -1.875536   -2.005764
     32          1           0        1.882993   -3.159339   -1.747010
     33          1           0        3.454304   -3.229743   -0.903806
     34          1           0        3.418726   -0.163161   -0.137499
     35          1           0        3.906680   -1.559218    0.859358
     36          1           0        2.620363   -0.462182    1.405724
     37          1           0       -0.615236    0.715168    1.963943
     38          1           0        0.790688   -1.069902    2.146863
     39          1           0       -1.122973   -2.652702    0.821818
     40          1           0       -1.907140   -1.465967    1.755237
     41          1           0       -0.882902   -2.570816    2.507817
 ---------------------------------------------------------------------

 SCF Done:  E(RB3LYP) =  -844.969005957     A.U. after    1 cycles

 Isotropic polarizability for W=    0.000000      183.14 Bohr**3.
 End of Minotr Frequency-dependent properties file   721 does not exist.

                     1                      2                      3
                     A                      A                      A
 Frequencies --    24.1433                38.7558                52.2726
 Red. masses --     4.4965                 4.3434                 3.7645
 Frc consts  --     0.0015                 0.0038                 0.0061
 IR Inten    --     0.7320                 0.2626                 0.1880

                     4                      5                      6
                     A                      A                      A
 Frequencies --    70.5824                81.5560                91.8107
 Red. masses --     3.7172                 3.9495                 1.3246
 Frc consts  --     0.0109                 0.0155                 0.0066
 IR Inten    --     0.2853                 0.1908                 0.3449

                     7                      8                      9
                     A                      A                      A
 Frequencies --   103.4734               119.8786               141.8938
 Red. masses --     2.3299                 3.5351                 4.0658
 Frc consts  --     0.0147                 0.0299                 0.0482
 IR Inten    --     0.9993                17.7604                 1.0375

                    10                     11                     12
                     A                      A                      A
 Frequencies --   151.9197               199.0507               228.3785
 Red. masses --     1.2508                 3.4230                 4.2226
 Frc consts  --     0.0170                 0.0799                 0.1298
 IR Inten    --     0.9891                 2.5779                 1.3886

                    13                     14                     15
                     A                      A                      A
 Frequencies --   253.6020               261.5271               275.1872
 Red. masses --     3.1954                 4.1333                 1.4517
 Frc consts  --     0.1211                 0.1666                 0.0648
 IR Inten    --    12.4533                 0.6193                 0.5602

                    16                     17                     18
                     A                      A                      A
 Frequencies --   284.8478               298.7427               317.4163
 Red. masses --     4.1594                 2.1221                 3.0668
 Frc consts  --     0.1988                 0.1116                 0.1820
 IR Inten    --     1.0501                 7.0001                13.0933

                    19                     20                     21
                     A                      A                      A
 Frequencies --   391.5345               416.1840               419.4016
 Red. masses --     3.0800                 2.9534                 2.9943
 Frc consts  --     0.2782                 0.3014                 0.3103
 IR Inten    --     8.7919                 0.7610                 1.6457

                    22                     23                     24
                     A                      A                      A
 Frequencies --   429.7854               447.0915               495.3184
 Red. masses --     3.7736                 3.2708                 3.7653
 Frc consts  --     0.4107                 0.3852                 0.5443
 IR Inten    --    36.6073                43.9519                 0.4202

                    25                     26                     27
                     A                      A                      A
 Frequencies --   506.6250               560.4729               608.3176
 Red. masses --     3.7760                 4.0302                 5.7433
 Frc consts  --     0.5710                 0.7459                 1.2522
 IR Inten    --    29.5480                18.7400                 7.3513

                    28                     29                     30
                     A                      A                      A
 Frequencies --   628.3943               633.4579               637.2721
 Red. masses --     5.7491                 5.8995                 5.6423
 Frc consts  --     1.3376                 1.3948                 1.3501
 IR Inten    --     1.7952                 3.1964                 4.8229

                    31                     32                     33
                     A                      A                      A
 Frequencies --   648.6362               714.3263               722.0970
 Red. masses --     6.2050                 2.1791                 2.0547
 Frc consts  --     1.5381                 0.6551                 0.6312
 IR Inten    --     1.4304                14.1195                45.7146

                    34                     35                     36
                     A                      A                      A
 Frequencies --   732.6821               747.4468               772.9329
 Red. masses --     3.6458                 2.8113                 1.8287
 Frc consts  --     1.1531                 0.9254                 0.6437
 IR Inten    --     8.4090                10.8701                22.5576

                    37                     38                     39
                     A                      A                      A
 Frequencies --   795.4328               860.1859               862.6156
 Red. masses --     2.3916                 1.8957                 1.9117
 Frc consts  --     0.8916                 0.8264                 0.8381
 IR Inten    --    31.8732                 2.6612                 2.5511

                    40                     41                     42
                     A                      A                      A
 Frequencies --   867.0197               877.0322               915.3147
 Red. masses --     1.2720                 4.1358                 2.3089
 Frc consts  --     0.5634                 1.8743                 1.1397
 IR Inten    --     1.2431                 1.3627                11.8329

                    43                     44                     45
                     A                      A                      A
 Frequencies --   941.8983               944.5603               974.8487
 Red. masses --     1.5906                 1.5791                 2.8526
 Frc consts  --     0.8314                 0.8301                 1.5972
 IR Inten    --     0.8926                 5.9120                28.8061

                    46                     47                     48
                     A                      A                      A
 Frequencies --   977.5660               984.1368               986.5483
 Red. masses --     1.3597                 1.8514                 1.9661
 Frc consts  --     0.7656                 1.0565                 1.1274
 IR Inten    --     0.3197                14.5319                 9.5106

                    49                     50                     51
                     A                      A                      A
 Frequencies --  1012.2070              1016.2213              1018.6644
 Red. masses --     1.3827                 5.0481                 1.3905
 Frc consts  --     0.8347                 3.0716                 0.8501
 IR Inten    --     0.2169                 4.3724                 0.0806

                    52                     53                     54
                     A                      A                      A
 Frequencies --  1019.7600              1059.7121              1061.5251
 Red. masses --     3.9456                 2.3277                 2.2983
 Frc consts  --     2.4175                 1.5401                 1.5259
 IR Inten    --     3.4996                 1.7118                 0.7755

                    55                     56                     57
                     A                      A                      A
 Frequencies --  1081.7937              1104.5036              1115.9848
 Red. masses --     1.4611                 1.4750                 1.6455
 Frc consts  --     1.0074                 1.0602                 1.2074
 IR Inten    --    10.8287                31.6455                 0.4256

                    58                     59                     60
                     A                      A                      A
 Frequencies --  1127.3788              1130.3518              1149.9783
 Red. masses --     1.6287                 1.2263                 1.4604
 Frc consts  --     1.2196                 0.9231                 1.1379
 IR Inten    --    13.9261                 1.0072                86.5922

                    61                     62                     63
                     A                      A                      A
 Frequencies --  1182.7546              1186.1977              1199.0947
 Red. masses --     1.5219                 1.6508                 1.1820
 Frc consts  --     1.2544                 1.3686                 1.0013
 IR Inten    --     8.5951                24.5041                 0.2902

                    64                     65                     66
                     A                      A                      A
 Frequencies --  1201.1920              1204.0254              1221.4406
 Red. masses --     1.2595                 1.9301                 1.1548
 Frc consts  --     1.0707                 1.6486                 1.0151
 IR Inten    --     0.8783                 1.2771                 2.0707

                    67                     68                     69
                     A                      A                      A
 Frequencies --  1227.1696              1229.2993              1263.0885
 Red. masses --     2.0543                 1.2108                 1.7753
 Frc consts  --     1.8228                 1.0780                 1.6687
 IR Inten    --     2.5530                 0.8909                23.4576

                    70                     71                     72
                     A                      A                      A
 Frequencies --  1270.5666              1294.2606              1347.4336
 Red. masses --     2.3640                 2.1525                 3.1971
 Frc consts  --     2.2485                 2.1245                 3.4200
 IR Inten    --    28.5407                 3.3114                 4.3143

                    73                     74                     75
                     A                      A                      A
 Frequencies --  1363.4866              1368.3405              1376.0447
 Red. masses --     1.5753                 1.7946                 1.6141
 Frc consts  --     1.7255                 1.9798                 1.8007
 IR Inten    --     9.4213                 7.6073                 1.7971

                    76                     77                     78
                     A                      A                      A
 Frequencies --  1394.6619              1412.7969              1454.4142
 Red. masses --     1.3874                 1.3531                 1.2735
 Frc consts  --     1.5899                 1.5913                 1.5872
 IR Inten    --    10.7946                 2.5244               345.6083

                    79                     80                     81
                     A                      A                      A
 Frequencies --  1462.6096              1475.0830              1500.1688
 Red. masses --     1.1570                 2.1120                 1.3735
 Frc consts  --     1.4583                 2.7076                 1.8212
 IR Inten    --    32.0642                44.9964                 5.6684

                    82                     83                     84
                     A                      A                      A
 Frequencies --  1501.7856              1505.3084              1505.6204
 Red. masses --     1.5139                 1.1683                 1.8497
 Frc consts  --     2.0117                 1.5598                 2.4704
 IR Inten    --    29.5508                15.0708                 3.3558

                    85                     86                     87
                     A                      A                      A
 Frequencies --  1525.8732              1529.8139              1542.9878
 Red. masses --     1.0860                 1.0504                 2.0915
 Frc consts  --     1.4897                 1.4484                 2.9338
 IR Inten    --     8.5271                30.9734                23.1403

                    88                     89                     90
                     A                      A                      A
 Frequencies --  1545.4622              1562.1634              1627.0968
 Red. masses --     2.1074                 1.4121                 1.1192
 Frc consts  --     2.9656                 2.0304                 1.7458
 IR Inten    --     2.7252                43.7628                79.1403

                    91                     92                     93
                     A                      A                      A
 Frequencies --  1638.7312              1642.2181              1655.9403
 Red. masses --     4.9464                 5.2941                 4.8102
 Frc consts  --     7.8263                 8.4121                 7.7715
 IR Inten    --     4.5158                 2.2020                 3.1559

                    94                     95                     96
                     A                      A                      A
 Frequencies --  1659.6251              1691.2084              1740.0629
 Red. masses --     5.1003                 1.0785                 4.3507
 Frc consts  --     8.2768                 1.8174                 7.7614
 IR Inten    --     0.1838                86.3801               210.1169

                    97                     98                     99
                     A                      A                      A
 Frequencies --  2949.9612              3045.3455              3068.8180
 Red. masses --     1.0692                 1.0843                 1.0373
 Frc consts  --     5.4820                 5.9247                 5.7554
 IR Inten    --   264.1932                10.2979                10.1203

                   100                    101                    102
                     A                      A                      A
 Frequencies --  3074.7254              3131.2112              3135.5334
 Red. masses --     1.0392                 1.1060                 1.1052
 Frc consts  --     5.7882                 6.3888                 6.4020
 IR Inten    --    26.0034                11.5624                 5.8497

                   103                    104                    105
                     A                      A                      A
 Frequencies --  3143.7681              3171.5499              3179.4474
 Red. masses --     1.0880                 1.0891                 1.0891
 Frc consts  --     6.3352                 6.4545                 6.4864
 IR Inten    --     4.6778                 7.8589                 5.6477

                   106                    107                    108
                     A                      A                      A
 Frequencies --  3198.4161              3202.4058              3207.7643
 Red. masses --     1.0868                 1.0874                 1.0905
 Frc consts  --     6.5505                 6.5706                 6.6114
 IR Inten    --     0.5415                 0.2289                 4.6445

                   109                    110                    111
                     A                      A                      A
 Frequencies --  3211.2663              3212.8588              3215.4836
 Red. masses --     1.0916                 1.0974                 1.0995
 Frc consts  --     6.6322                 6.6744                 6.6979
 IR Inten    --     8.9446                 7.9361                 1.8989

                   112                    113                    114
                     A                      A                      A
 Frequencies --  3216.7748              3222.2910              3223.4117
 Red. masses --     1.0931                 1.0959                 1.0972
 Frc consts  --     6.6640                 6.7046                 6.7171
 IR Inten    --    11.1176                 3.9806                 7.9148

                   115                    116                    117
                     A                      A                      A
 Frequencies --  3230.4100              3396.4672              3509.7756
 Red. masses --     1.0938                 1.0617                 1.0881
 Frc consts  --     6.7252                 7.2161                 7.8973
 IR Inten    --     2.2689               132.4646               113.8447

 - Thermochemistry -
 -------------------
 Temperature   298.150 Kelvin.  Pressure   1.00000 Atm.
 Atom     1 has atomic number  6 and mass  12.00000

 Molecular mass:   269.16539 amu.
 Principal axes and moments of inertia in atomic units:
                           1         2         3
     Eigenvalues --  4093.800026057.186928087.67641
           X            0.99993  -0.01060  -0.00469
           Y            0.01063   0.99992   0.00676
           Z            0.00462  -0.00681   0.99997
 This molecule is an asymmetric top.
 Rotational symmetry number  1.
 Warning -- assumption of classical behavior for rotation
           may cause significant error
 Rotational temperatures (Kelvin)      0.02116     0.01430     0.01071
 Rotational constants (GHZ):           0.44085     0.29795     0.22315
 Zero-point vibrational energy     932177.8 (Joules/Mol)
                                  222.79585 (Kcal/Mol)
 Warning -- explicit consideration of  27 degrees of freedom as
           vibrations may cause significant error
 Vibrational temperatures:     34.74    55.76    75.21   101.55   117.34
          (Kelvin)            132.10   148.87   172.48   204.15   218.58
                              286.39   328.59   364.88   376.28   395.93
                              409.83   429.82   456.69   563.33   598.80
                              603.42   618.36   643.26   712.65   728.92
                              806.39   875.23   904.12   911.40   916.89
                              933.24  1027.75  1038.94  1054.16  1075.41
                             1112.08  1144.45  1237.61  1241.11  1247.45
                             1261.85  1316.93  1355.18  1359.01  1402.59
                             1406.50  1415.95  1419.42  1456.34  1462.11
                             1465.63  1467.21  1524.69  1527.30  1556.46
                             1589.13  1605.65  1622.04  1626.32  1654.56
                             1701.72  1706.67  1725.23  1728.25  1732.32
                             1757.38  1765.62  1768.69  1817.30  1828.06
                             1862.15  1938.65  1961.75  1968.73  1979.82
                             2006.60  2032.70  2092.58  2104.37  2122.31
                             2158.41  2160.73  2165.80  2166.25  2195.39
                             2201.06  2220.01  2223.57  2247.60  2341.03
                             2357.77  2362.78  2382.53  2387.83  2433.27
                             2503.56  4244.33  4381.57  4415.34  4423.84
                             4505.11  4511.33  4523.18  4563.15  4574.51
                             4601.80  4607.54  4615.25  4620.29  4622.58
                             4626.36  4628.22  4636.15  4637.76  4647.83
                             4886.75  5049.78

 Zero-point correction=                           0.355048 (Hartree/Particle)
 Thermal correction to Energy=                    0.373785
 Thermal correction to Enthalpy=                  0.374729
 Thermal correction to Gibbs Free Energy=         0.307182
 Sum of electronic and zero-point Energies=           -844.613958
 Sum of electronic and thermal Energies=              -844.595221
 Sum of electronic and thermal Enthalpies=            -844.594277
 Sum of electronic and thermal Free Energies=         -844.661824

                     E (Thermal)             CV                S
                      KCal/Mol        Cal/Mol-Kelvin    Cal/Mol-Kelvin
 Total                  234.554             72.137            142.165
 Electronic               0.000              0.000              0.000
 Translational            0.889              2.981             42.670
 Rotational               0.889              2.981             33.661
 Vibrational            232.776             66.175             65.835
 Vibration     1          0.593              1.985              6.260
 Vibration     2          0.594              1.981              5.322
 Vibration     3          0.596              1.977              4.730
 Vibration     4          0.598              1.968              4.137
 Vibration     5          0.600              1.962              3.853
 Vibration     6          0.602              1.955              3.621
 Vibration     7          0.605              1.946              3.388
 Vibration     8          0.609              1.933              3.102
 Vibration     9          0.615              1.911              2.778
 Vibration    10          0.619              1.901              2.648
 Vibration    11          0.637              1.841              2.142
 Vibration    12          0.651              1.798              1.892
 Vibration    13          0.665              1.757              1.705
 Vibration    14          0.669              1.743              1.652
 Vibration    15          0.677              1.719              1.563
 Vibration    16          0.683              1.702              1.504
 Vibration    17          0.692              1.676              1.424
 Vibration    18          0.704              1.640              1.323
 Vibration    19          0.759              1.488              0.994
 Vibration    20          0.779              1.435              0.905
 Vibration    21          0.782              1.428              0.894
 Vibration    22          0.791              1.405              0.859
 Vibration    23          0.806              1.367              0.805
 Vibration    24          0.851              1.260              0.670
 Vibration    25          0.862              1.235              0.642
 Vibration    26          0.916              1.117              0.523
 Vibration    27          0.967              1.014              0.436

 Normal termination of Gaussian 09 at Fri Feb 16 21:58:54 2018.
