 Gaussian 09, Revision C.01,
 Gaussian 09:  AM64L-G09RevC.01 23-Sep-2011

 ---------------------------------------------------------
 #B3LYP/6-31G* Integral=(Grid=UltraFine) freq Opt pop=none
 ---------------------------------------------------------

 99/9=1/99;
 -----------------------------
 Optimization for frag36-conf0
 -----------------------------
 Charge =  0 Multiplicity = 1

 SCF Done:  E(RB3LYP) =  -571.815402804     A.U. after   15 cycles
 SCF Done:  E(RB3LYP) =  -571.816722881     A.U. after   15 cycles
 SCF Done:  E(RB3LYP) =  -571.816826092     A.U. after   12 cycles
 SCF Done:  E(RB3LYP) =  -571.816831938     A.U. after   12 cycles
 SCF Done:  E(RB3LYP) =  -571.816856948     A.U. after   13 cycles
 SCF Done:  E(RB3LYP) =  -571.816894946     A.U. after   15 cycles
 SCF Done:  E(RB3LYP) =  -571.816979611     A.U. after   16 cycles
 SCF Done:  E(RB3LYP) =  -571.817012267     A.U. after   12 cycles
 SCF Done:  E(RB3LYP) =  -571.817213364     A.U. after   15 cycles
 SCF Done:  E(RB3LYP) =  -571.817453610     A.U. after   12 cycles
 SCF Done:  E(RB3LYP) =  -571.819641765     A.U. after   12 cycles
 SCF Done:  E(RB3LYP) =  -571.819710766     A.U. after   12 cycles
 SCF Done:  E(RB3LYP) =  -571.819739351     A.U. after   11 cycles
 SCF Done:  E(RB3LYP) =  -571.819753951     A.U. after   10 cycles
 SCF Done:  E(RB3LYP) =  -571.819764542     A.U. after   10 cycles
 SCF Done:  E(RB3LYP) =  -571.819774382     A.U. after   11 cycles
 SCF Done:  E(RB3LYP) =  -571.819776017     A.U. after   10 cycles
 SCF Done:  E(RB3LYP) =  -571.819776193     A.U. after    8 cycles
 SCF Done:  E(RB3LYP) =  -571.819776207     A.U. after    7 cycles
 Optimization completed.
    -- Stationary point found.
 Normal termination of Gaussian 09 at Fri Feb 16 21:29:43 2018.

 --------------------------------------------------------------------
 #N Geom=AllCheck Guess=TCheck SCRF=Check GenChk RB3LYP/6-31G(d) Freq
 --------------------------------------------------------------------

 Structure from the checkpoint file:  frag36-conf0.chk
 -----------------------------
 Optimization for frag36-conf0
 -----------------------------
 Charge =  0 Multiplicity = 1

                         Standard orientation:
 ---------------------------------------------------------------------
 Center     Atomic      Atomic             Coordinates (Angstroms)
 Number     Number       Type             X           Y           Z
 ---------------------------------------------------------------------
      1          6           0        3.948925   -0.641994    0.258333
      2          6           0        2.303321    1.183455    0.300396
      3          6           0        1.613221   -1.033959   -0.416046
      4          6           0        1.003920    1.641209    0.094486
      5          6           0        0.321416   -0.563538   -0.618429
      6          6           0        2.614507   -0.161101    0.047250
      7          6           0        0.000899    0.779473   -0.362886
      8          6           0       -3.128498   -0.393481    0.064565
      9          6           0       -4.057809   -0.875956    1.167228
     10          6           0       -1.417837    1.276231   -0.577224
     11          7           0        5.031376   -1.031629    0.431953
     12          7           0       -2.384363    0.717278    0.363016
     13          8           0       -3.061091   -0.958572   -1.021567
     14          1           0        3.076955    1.857013    0.654910
     15          1           0        1.859377   -2.071568   -0.618004
     16          1           0        0.769704    2.685159    0.289592
     17          1           0       -0.453658   -1.232137   -0.981731
     18          1           0       -5.073953   -0.934447    0.766425
     19          1           0       -3.764076   -1.889223    1.459264
     20          1           0       -4.061438   -0.236591    2.055462
     21          1           0       -1.450106    2.368443   -0.501747
     22          1           0       -1.769226    0.993207   -1.573072
     23          1           0       -2.386328    1.067121    1.310618
 ---------------------------------------------------------------------

 SCF Done:  E(RB3LYP) =  -571.819776207     A.U. after    1 cycles

 Isotropic polarizability for W=    0.000000      115.85 Bohr**3.
 End of Minotr Frequency-dependent properties file   721 does not exist.

                     1                      2                      3
                     A                      A                      A
 Frequencies --    30.4393                46.0019                55.1083
 Red. masses --     3.3500                 1.5995                 3.0623
 Frc consts  --     0.0018                 0.0020                 0.0055
 IR Inten    --     1.2334                 2.2756                 8.5400

                     4                      5                      6
                     A                      A                      A
 Frequencies --    61.8920               105.8493               142.6609
 Red. masses --     3.4318                 4.6652                 8.3243
 Frc consts  --     0.0077                 0.0308                 0.0998
 IR Inten    --     5.1375                 3.7414                 8.1009

                     7                      8                      9
                     A                      A                      A
 Frequencies --   209.2046               235.1190               296.1466
 Red. masses --     6.5636                 5.4396                 5.4146
 Frc consts  --     0.1693                 0.1772                 0.2798
 IR Inten    --     3.9683                 3.3298                 0.3913

                    10                     11                     12
                     A                      A                      A
 Frequencies --   342.4385               413.7738               423.9267
 Red. masses --     2.1410                 3.0451                 4.2591
 Frc consts  --     0.1479                 0.3072                 0.4510
 IR Inten    --     3.7057                 0.2569                 0.3263

                    13                     14                     15
                     A                      A                      A
 Frequencies --   439.6448               441.8876               525.4668
 Red. masses --     1.2509                 3.6840                 5.7947
 Frc consts  --     0.1425                 0.4238                 0.9427
 IR Inten    --   111.4046                10.3772                 7.5959

                    16                     17                     18
                     A                      A                      A
 Frequencies --   559.5652               581.2548               617.2962
 Red. masses --     7.3294                 3.6281                 2.8846
 Frc consts  --     1.3521                 0.7222                 0.6476
 IR Inten    --     0.3092                22.4193                 2.0163

                    19                     20                     21
                     A                      A                      A
 Frequencies --   643.1300               660.9952               707.3043
 Red. masses --     2.8336                 6.3631                 4.2367
 Frc consts  --     0.6905                 1.6380                 1.2488
 IR Inten    --     3.4138                 0.5867                 4.3442

                    22                     23                     24
                     A                      A                      A
 Frequencies --   765.0528               834.7390               856.5262
 Red. masses --     4.3492                 3.1633                 2.6894
 Frc consts  --     1.4998                 1.2986                 1.1625
 IR Inten    --     3.4410                13.7371                 4.5323

                    25                     26                     27
                     A                      A                      A
 Frequencies --   861.0959               877.1642               969.3864
 Red. masses --     1.5116                 1.5910                 1.3316
 Frc consts  --     0.6604                 0.7212                 0.7373
 IR Inten    --     5.8131                21.1450                 0.1108

                    28                     29                     30
                     A                      A                      A
 Frequencies --   997.3293              1005.5381              1037.0716
 Red. masses --     1.4574                 1.4726                 2.6802
 Frc consts  --     0.8541                 0.8772                 1.6984
 IR Inten    --     1.6991                 3.6274                 1.3235

                    31                     32                     33
                     A                      A                      A
 Frequencies --  1044.1611              1068.5349              1103.2843
 Red. masses --     2.7830                 1.7044                 3.2551
 Frc consts  --     1.7877                 1.1466                 2.3345
 IR Inten    --     8.4670                 7.3881                11.1590

                    34                     35                     36
                     A                      A                      A
 Frequencies --  1149.0489              1212.0670              1229.0965
 Red. masses --     1.3663                 1.6619                 2.7485
 Frc consts  --     1.0629                 1.4385                 2.4463
 IR Inten    --     5.2518                 0.3177                 1.5228

                    37                     38                     39
                     A                      A                      A
 Frequencies --  1234.7093              1266.8466              1292.6632
 Red. masses --     2.1229                 1.5184                 1.8453
 Frc consts  --     1.9068                 1.4358                 1.8168
 IR Inten    --     1.5497                32.0909               143.4941

                    40                     41                     42
                     A                      A                      A
 Frequencies --  1341.3790              1365.8763              1402.4280
 Red. masses --     2.1741                 1.7319                 1.3499
 Frc consts  --     2.3048                 1.9037                 1.5643
 IR Inten    --     2.0554                 6.2740                15.6959

                    43                     44                     45
                     A                      A                      A
 Frequencies --  1427.0050              1459.8753              1498.6135
 Red. masses --     1.2576                 2.5519                 1.0977
 Frc consts  --     1.5089                 3.2045                 1.4524
 IR Inten    --    22.9489                15.9199                14.9859

                    46                     47                     48
                     A                      A                      A
 Frequencies --  1500.7566              1515.2062              1551.5184
 Red. masses --     1.0525                 1.0701                 2.0968
 Frc consts  --     1.3967                 1.4474                 2.9738
 IR Inten    --     3.4812                19.1469                78.0255

                    49                     50                     51
                     A                      A                      A
 Frequencies --  1558.3252              1616.7283              1667.9691
 Red. masses --     2.0963                 6.1091                 5.5694
 Frc consts  --     2.9993                 9.4081                 9.1292
 IR Inten    --   143.2071                 0.3433                12.5757

                    52                     53                     54
                     A                      A                      A
 Frequencies --  1776.7013              2347.8569              3065.6197
 Red. masses --     8.9884                12.6817                 1.0357
 Frc consts  --    16.7171                41.1879                 5.7346
 IR Inten    --   198.3876                36.2171                 7.7749

                    55                     56                     57
                     A                      A                      A
 Frequencies --  3073.0728              3132.5975              3139.2681
 Red. masses --     1.0636                 1.1013                 1.1029
 Frc consts  --     5.9178                 6.3675                 6.4037
 IR Inten    --    29.6965                 3.0595                13.2290

                    58                     59                     60
                     A                      A                      A
 Frequencies --  3145.7630              3184.3789              3207.6107
 Red. masses --     1.1022                 1.0891                 1.0890
 Frc consts  --     6.4263                 6.5071                 6.6012
 IR Inten    --     9.8592                11.8284                 0.5119

                    61                     62                     63
                     A                      A                      A
 Frequencies --  3218.2146              3221.7373              3625.8737
 Red. masses --     1.0936                 1.0955                 1.0778
 Frc consts  --     6.6732                 6.6993                 8.3486
 IR Inten    --     6.4383                 1.9023                16.8588

 - Thermochemistry -
 -------------------
 Temperature   298.150 Kelvin.  Pressure   1.00000 Atm.
 Atom     1 has atomic number  6 and mass  12.00000

 Molecular mass:   174.07931 amu.
 Principal axes and moments of inertia in atomic units:
                           1         2         3
     Eigenvalues --   855.164095165.161765556.69463
           X            0.99990   0.00762  -0.01213
           Y           -0.00772   0.99994  -0.00808
           Z            0.01207   0.00818   0.99989
 This molecule is an asymmetric top.
 Rotational symmetry number  1.
 Warning -- assumption of classical behavior for rotation
           may cause significant error
 Rotational temperatures (Kelvin)      0.10128     0.01677     0.01559
 Rotational constants (GHZ):           2.11040     0.34941     0.32479
 Zero-point vibrational energy     480825.8 (Joules/Mol)
                                  114.92012 (Kcal/Mol)
 Warning -- explicit consideration of  18 degrees of freedom as
           vibrations may cause significant error
 Vibrational temperatures:     43.80    66.19    79.29    89.05   152.29
          (Kelvin)            205.26   301.00   338.28   426.09   492.69
                              595.33   609.94   632.55   635.78   756.03
                              805.09   836.29   888.15   925.32   951.02
                             1017.65  1100.74  1201.00  1232.35  1238.92
                             1262.04  1394.73  1434.93  1446.74  1492.11
                             1502.31  1537.38  1587.38  1653.22  1743.89
                             1768.39  1776.47  1822.71  1859.85  1929.94
                             1965.19  2017.78  2053.14  2100.43  2156.17
                             2159.25  2180.04  2232.29  2242.08  2326.11
                             2399.83  2556.27  3378.04  4410.74  4421.46
                             4507.10  4516.70  4526.05  4581.61  4615.03
                             4630.29  4635.36  5216.82

 Zero-point correction=                           0.183137 (Hartree/Particle)
 Thermal correction to Energy=                    0.195497
 Thermal correction to Enthalpy=                  0.196442
 Thermal correction to Gibbs Free Energy=         0.142392
 Sum of electronic and zero-point Energies=           -571.636639
 Sum of electronic and thermal Energies=              -571.624279
 Sum of electronic and thermal Enthalpies=            -571.623335
 Sum of electronic and thermal Free Energies=         -571.677384

                     E (Thermal)             CV                S
                      KCal/Mol        Cal/Mol-Kelvin    Cal/Mol-Kelvin
 Total                  122.676             44.776            113.757
 Electronic               0.000              0.000              0.000
 Translational            0.889              2.981             41.370
 Rotational               0.889              2.981             31.574
 Vibrational            120.899             38.814             40.813
 Vibration     1          0.594              1.984              5.801
 Vibration     2          0.595              1.979              4.982
 Vibration     3          0.596              1.976              4.625
 Vibration     4          0.597              1.973              4.396
 Vibration     5          0.605              1.945              3.344
 Vibration     6          0.616              1.911              2.768
 Vibration     7          0.642              1.827              2.051
 Vibration     8          0.655              1.787              1.840
 Vibration     9          0.690              1.681              1.439
 Vibration    10          0.722              1.591              1.201
 Vibration    11          0.777              1.440              0.913
 Vibration    12          0.786              1.418              0.879
 Vibration    13          0.800              1.384              0.828
 Vibration    14          0.802              1.379              0.821
 Vibration    15          0.880              1.194              0.597
 Vibration    16          0.915              1.119              0.525
 Vibration    17          0.938              1.072              0.483
 Vibration    18          0.977              0.995              0.421

 Optimization completed.
    -- Stationary point found.
 Normal termination of Gaussian 09 at Fri Feb 16 21:45:07 2018.
