 Gaussian 09, Revision C.01,
 Gaussian 09:  AM64L-G09RevC.01 23-Sep-2011

 ----------------------------------------------------------------------
 #HF/6-31G* Geom=AllCheck Guess=Read Pop=(MK,ReadRadii) Integral=(Grid=
 UltraFine) iop(6/33=2)
 ----------------------------------------------------------------------

 Structure from the checkpoint file:  frag36-conf0.chk
 -----------------------------
 Optimization for frag36-conf0
 -----------------------------
 Charge =  0 Multiplicity = 1

                         Standard orientation:
 ---------------------------------------------------------------------
 Center     Atomic      Atomic             Coordinates (Angstroms)
 Number     Number       Type             X           Y           Z
 ---------------------------------------------------------------------
      1          6           0        3.948925   -0.641994    0.258333
      2          6           0        2.303321    1.183455    0.300396
      3          6           0        1.613221   -1.033959   -0.416046
      4          6           0        1.003920    1.641209    0.094486
      5          6           0        0.321416   -0.563538   -0.618429
      6          6           0        2.614507   -0.161101    0.047250
      7          6           0        0.000899    0.779473   -0.362886
      8          6           0       -3.128498   -0.393481    0.064565
      9          6           0       -4.057809   -0.875956    1.167228
     10          6           0       -1.417837    1.276231   -0.577224
     11          7           0        5.031376   -1.031629    0.431953
     12          7           0       -2.384363    0.717278    0.363016
     13          8           0       -3.061091   -0.958572   -1.021567
     14          1           0        3.076955    1.857013    0.654910
     15          1           0        1.859377   -2.071568   -0.618004
     16          1           0        0.769704    2.685159    0.289592
     17          1           0       -0.453658   -1.232137   -0.981731
     18          1           0       -5.073953   -0.934447    0.766425
     19          1           0       -3.764076   -1.889223    1.459264
     20          1           0       -4.061438   -0.236591    2.055462
     21          1           0       -1.450106    2.368443   -0.501747
     22          1           0       -1.769226    0.993207   -1.573072
     23          1           0       -2.386328    1.067121    1.310618
 ---------------------------------------------------------------------

 SCF Done:  E(RHF) =  -568.284924960     A.U. after   15 cycles

 The electronic state is 1-A.
 Alpha  occ. eigenvalues --  -20.53432 -15.60577 -15.57808 -11.36821 -11.28875
 Alpha  occ. eigenvalues --  -11.28844 -11.28023 -11.27208 -11.27078 -11.26935
 Alpha  occ. eigenvalues --  -11.26080 -11.25387 -11.24994  -1.38635  -1.24394
 Alpha  occ. eigenvalues --   -1.21690  -1.17561  -1.07650  -1.04033  -1.01951
 Alpha  occ. eigenvalues --   -0.95295  -0.85642  -0.85448  -0.79998  -0.75739
 Alpha  occ. eigenvalues --   -0.70811  -0.67977  -0.66624  -0.65459  -0.63479
 Alpha  occ. eigenvalues --   -0.61332  -0.60795  -0.58958  -0.57409  -0.56583
 Alpha  occ. eigenvalues --   -0.55756  -0.54185  -0.53857  -0.51672  -0.50989
 Alpha  occ. eigenvalues --   -0.47089  -0.45839  -0.43143  -0.40417  -0.35927
 Alpha  occ. eigenvalues --   -0.34457
 Alpha virt. eigenvalues --    0.08186   0.11862   0.18116   0.20324   0.21066
 Alpha virt. eigenvalues --    0.22842   0.24900   0.25503   0.26883   0.28287
 Alpha virt. eigenvalues --    0.30320   0.30988   0.31335   0.32626   0.34545

 Mulliken atomic charges:
              1
     1  C    0.272091
     2  C   -0.166727
     3  C   -0.169267
     4  C   -0.239244
     5  C   -0.233940
     6  C   -0.011612
     7  C    0.041466
     8  C    0.763624
     9  C   -0.576261
    10  C   -0.166888
    11  N   -0.466453
    12  N   -0.793024
    13  O   -0.630165
    14  H    0.240069
    15  H    0.242790
    16  H    0.211788
    17  H    0.264245
    18  H    0.214565
    19  H    0.210402
    20  H    0.170138
    21  H    0.192176
    22  H    0.243003
    23  H    0.387226
 Sum of Mulliken atomic charges =   0.00000

 Dipole moment (field-independent basis, Debye):
    X=             -4.6735    Y=              3.4951    Z=              2.5463  Tot=              6.3672
 Quadrupole moment (field-independent basis, Debye-Ang):
   XX=           -102.5909   YY=            -70.8681   ZZ=            -77.2720
   XY=              3.9522   XZ=            -12.8488   YZ=              0.3390

 Normal termination of Gaussian 09 at Sat Feb 17 21:03:31 2018.
