 Gaussian 09, Revision C.01,
 Gaussian 09:  AM64L-G09RevC.01 23-Sep-2011

 ---------------------------------------------------------
 #B3LYP/6-31G* Integral=(Grid=UltraFine) freq Opt pop=none
 ---------------------------------------------------------

 99/9=1/99;
 -----------------------------
 Optimization for frag56-conf2
 -----------------------------
 Charge =  0 Multiplicity = 1

 SCF Done:  E(RB3LYP) =  -1259.91359765     A.U. after   15 cycles
 SCF Done:  E(RB3LYP) =  -1259.91868496     A.U. after   13 cycles
 SCF Done:  E(RB3LYP) =  -1259.91915781     A.U. after   12 cycles
 SCF Done:  E(RB3LYP) =  -1259.91930104     A.U. after   13 cycles
 SCF Done:  E(RB3LYP) =  -1259.91942982     A.U. after   12 cycles
 SCF Done:  E(RB3LYP) =  -1259.91951126     A.U. after   12 cycles
 SCF Done:  E(RB3LYP) =  -1259.91955802     A.U. after   11 cycles
 SCF Done:  E(RB3LYP) =  -1259.91957523     A.U. after   10 cycles
 SCF Done:  E(RB3LYP) =  -1259.91958453     A.U. after   10 cycles
 SCF Done:  E(RB3LYP) =  -1259.91959560     A.U. after   10 cycles
 SCF Done:  E(RB3LYP) =  -1259.91961206     A.U. after   11 cycles
 SCF Done:  E(RB3LYP) =  -1259.91962513     A.U. after   11 cycles
 SCF Done:  E(RB3LYP) =  -1259.91963422     A.U. after   11 cycles
 SCF Done:  E(RB3LYP) =  -1259.91963820     A.U. after   10 cycles
 SCF Done:  E(RB3LYP) =  -1259.91963997     A.U. after   10 cycles
 SCF Done:  E(RB3LYP) =  -1259.91964014     A.U. after    8 cycles
 SCF Done:  E(RB3LYP) =  -1259.91964015     A.U. after    7 cycles
 Optimization completed.
    -- Stationary point found.
 Normal termination of Gaussian 09 at Fri Feb 16 22:07:35 2018.

 --------------------------------------------------------------------
 #N Geom=AllCheck Guess=TCheck SCRF=Check GenChk RB3LYP/6-31G(d) Freq
 --------------------------------------------------------------------

 Structure from the checkpoint file:  frag56-conf2.chk
 -----------------------------
 Optimization for frag56-conf2
 -----------------------------
 Charge =  0 Multiplicity = 1

                         Standard orientation:
 ---------------------------------------------------------------------
 Center     Atomic      Atomic             Coordinates (Angstroms)
 Number     Number       Type             X           Y           Z
 ---------------------------------------------------------------------
      1          6           0       -0.227224    1.059918   -0.791461
      2          6           0       -1.549775    1.380846   -0.359258
      3          6           0        0.072989   -0.273678   -0.710935
      4          6           0       -2.237342    0.274401    0.052267
      5          6           0        3.162031    0.210963    0.227179
      6          6           0        4.018542    0.215066    1.483674
      7          6           0        1.385351   -0.946167   -1.024941
      8          7           0        2.361684   -0.890712    0.061352
      9          8           0        3.193433    1.126387   -0.586756
     10         16           0       -1.288869   -1.182163   -0.084387
     11         17           0       -3.868739    0.216001    0.635371
     12          1           0        0.493933    1.791978   -1.138070
     13          1           0       -1.972284    2.378685   -0.356896
     14          1           0        5.038847    0.496808    1.210657
     15          1           0        3.639067    0.980247    2.169738
     16          1           0        4.038205   -0.747075    2.005087
     17          1           0        1.235156   -1.995662   -1.297361
     18          1           0        1.844669   -0.439427   -1.876722
     19          1           0        2.246184   -1.527178    0.837871
 ---------------------------------------------------------------------

 SCF Done:  E(RB3LYP) =  -1259.91964015     A.U. after    1 cycles

 Isotropic polarizability for W=    0.000000      104.84 Bohr**3.
 End of Minotr Frequency-dependent properties file   721 does not exist.

                     1                      2                      3
                     A                      A                      A
 Frequencies --    29.2991                48.1082                58.8641
 Red. masses --     4.8982                 1.9694                 4.8285
 Frc consts  --     0.0025                 0.0027                 0.0099
 IR Inten    --     1.6131                 1.2111                15.1884

                     4                      5                      6
                     A                      A                      A
 Frequencies --    62.9925               123.5549               173.5892
 Red. masses --     1.7885                 6.5771                 8.3399
 Frc consts  --     0.0042                 0.0592                 0.1481
 IR Inten    --     0.8053                 1.6771                 2.4266

                     7                      8                      9
                     A                      A                      A
 Frequencies --   225.6744               272.1629               324.9826
 Red. masses --     7.3924                 5.2974                 4.1601
 Frc consts  --     0.2218                 0.2312                 0.2589
 IR Inten    --     0.9748                 4.0510                 2.3139

                    10                     11                     12
                     A                      A                      A
 Frequencies --   341.2018               426.7107               446.7000
 Red. masses --     2.8551                 5.1860                 2.6491
 Frc consts  --     0.1958                 0.5564                 0.3114
 IR Inten    --     0.9879                12.3252                39.3403

                    13                     14                     15
                     A                      A                      A
 Frequencies --   447.9360               522.2414               569.3139
 Red. masses --     1.5827                 4.5295                 3.6016
 Frc consts  --     0.1871                 0.7279                 0.6878
 IR Inten    --    81.1279                19.9172                 3.1813

                    16                     17                     18
                     A                      A                      A
 Frequencies --   608.9711               630.3337               663.8471
 Red. masses --     2.9132                 4.5934                 5.0058
 Frc consts  --     0.6365                 1.0753                 1.2997
 IR Inten    --     1.2040                 6.9640                 1.4461

                    19                     20                     21
                     A                      A                      A
 Frequencies --   698.5189               738.2436               821.8063
 Red. masses --     4.2840                 6.5282                 1.2846
 Frc consts  --     1.2316                 2.0963                 0.5111
 IR Inten    --    13.0496                 2.6105                32.9619

                    22                     23                     24
                     A                      A                      A
 Frequencies --   850.1177               907.9500               985.4823
 Red. masses --     2.5988                 1.4233                 2.5485
 Frc consts  --     1.1066                 0.6913                 1.4583
 IR Inten    --     6.1333                 2.6183                38.6578

                    25                     26                     27
                     A                      A                      A
 Frequencies --   999.2835              1027.3897              1067.7738
 Red. masses --     1.9585                 3.9065                 1.7097
 Frc consts  --     1.1522                 2.4295                 1.1485
 IR Inten    --    13.2861                15.8054                 9.0799

                    28                     29                     30
                     A                      A                      A
 Frequencies --  1086.1451              1094.2266              1164.0554
 Red. masses --     1.6665                 3.1739                 3.9365
 Frc consts  --     1.1583                 2.2390                 3.1427
 IR Inten    --    12.4387                23.4236                16.6400

                    31                     32                     33
                     A                      A                      A
 Frequencies --  1243.8247              1272.2255              1310.3849
 Red. masses --     1.3570                 1.8119                 1.6037
 Frc consts  --     1.2369                 1.7279                 1.6225
 IR Inten    --    11.1791               114.8394                68.1975

                    34                     35                     36
                     A                      A                      A
 Frequencies --  1381.8906              1398.4006              1425.4036
 Red. masses --     2.0993                 1.2757                 1.2619
 Frc consts  --     2.3619                 1.4698                 1.5106
 IR Inten    --     4.2997                22.2978                22.2096

                    37                     38                     39
                     A                      A                      A
 Frequencies --  1490.2680              1499.9463              1501.4975
 Red. masses --     1.0999                 1.1144                 5.3251
 Frc consts  --     1.4392                 1.4772                 7.0734
 IR Inten    --    13.3122                27.9570                47.9413

                    40                     41                     42
                     A                      A                      A
 Frequencies --  1515.4223              1549.1727              1607.3107
 Red. masses --     1.0644                 1.8299                 5.6647
 Frc consts  --     1.4402                 2.5875                 8.6224
 IR Inten    --    14.7725               193.8663                 4.4219

                    43                     44                     45
                     A                      A                      A
 Frequencies --  1781.5151              3063.7493              3081.9734
 Red. masses --     9.0843                 1.0362                 1.0642
 Frc consts  --    16.9871                 5.7307                 5.9554
 IR Inten    --   185.3881                 7.1036                24.2570

                    46                     47                     48
                     A                      A                      A
 Frequencies --  3132.5420              3142.6772              3152.2333
 Red. masses --     1.1024                 1.1009                 1.1020
 Frc consts  --     6.3738                 6.4062                 6.4514
 IR Inten    --    13.3491                 1.4980                 9.3873

                    49                     50                     51
                     A                      A                      A
 Frequencies --  3232.9937              3246.4535              3618.8497
 Red. masses --     1.0905                 1.0972                 1.0778
 Frc consts  --     6.7154                 6.8132                 8.3161
 IR Inten    --     1.3438                 0.8430                15.5127

 - Thermochemistry -
 -------------------
 Temperature   298.150 Kelvin.  Pressure   1.00000 Atm.
 Atom     1 has atomic number  6 and mass  12.00000

 Molecular mass:   189.00151 amu.
 Principal axes and moments of inertia in atomic units:
                           1         2         3
     Eigenvalues --   846.132225013.494605202.62911
           X            0.99983  -0.00561   0.01750
           Y            0.00553   0.99998   0.00433
           Z           -0.01753  -0.00424   0.99984
 This molecule is an asymmetric top.
 Rotational symmetry number  1.
 Warning -- assumption of classical behavior for rotation
           may cause significant error
 Rotational temperatures (Kelvin)      0.10236     0.01728     0.01665
 Rotational constants (GHZ):           2.13293     0.35998     0.34689
 Zero-point vibrational energy     371238.4 (Joules/Mol)
                                   88.72810 (Kcal/Mol)
 Warning -- explicit consideration of  16 degrees of freedom as
           vibrations may cause significant error
 Vibrational temperatures:     42.15    69.22    84.69    90.63   177.77
          (Kelvin)            249.76   324.69   391.58   467.58   490.91
                              613.94   642.70   644.48   751.39   819.11
                              876.17   906.91   955.13  1005.01  1062.17
                             1182.39  1223.13  1306.34  1417.89  1437.74
                             1478.18  1536.29  1562.72  1574.35  1674.81
                             1789.58  1830.45  1885.35  1988.23  2011.98
                             2050.84  2144.16  2158.09  2160.32  2180.35
                             2228.91  2312.56  2563.20  4408.05  4434.27
                             4507.02  4521.61  4535.36  4651.55  4670.92
                             5206.71

 Zero-point correction=                           0.141397 (Hartree/Particle)
 Thermal correction to Energy=                    0.152931
 Thermal correction to Enthalpy=                  0.153876
 Thermal correction to Gibbs Free Energy=         0.101271
 Sum of electronic and zero-point Energies=          -1259.778243
 Sum of electronic and thermal Energies=             -1259.766709
 Sum of electronic and thermal Enthalpies=           -1259.765764
 Sum of electronic and thermal Free Energies=        -1259.818370

                     E (Thermal)             CV                S
                      KCal/Mol        Cal/Mol-Kelvin    Cal/Mol-Kelvin
 Total                   95.966             40.485            110.717
 Electronic               0.000              0.000              0.000
 Translational            0.889              2.981             41.616
 Rotational               0.889              2.981             31.468
 Vibrational             94.188             34.523             37.633
 Vibration     1          0.593              1.984              5.876
 Vibration     2          0.595              1.978              4.894
 Vibration     3          0.596              1.974              4.495
 Vibration     4          0.597              1.972              4.361
 Vibration     5          0.610              1.929              3.044
 Vibration     6          0.627              1.875              2.396
 Vibration     7          0.650              1.802              1.913
 Vibration     8          0.675              1.725              1.582
 Vibration     9          0.709              1.626              1.285
 Vibration    10          0.721              1.593              1.207
 Vibration    11          0.788              1.412              0.869
 Vibration    12          0.806              1.368              0.806
 Vibration    13          0.807              1.365              0.802
 Vibration    14          0.877              1.201              0.605
 Vibration    15          0.925              1.098              0.506
 Vibration    16          0.968              1.013              0.434

 Normal termination of Gaussian 09 at Fri Feb 16 22:19:31 2018.
