 Gaussian 09, Revision C.01,
 Gaussian 09:  AM64L-G09RevC.01 23-Sep-2011

 ----------------------------------------------------------------------
 #HF/6-31G* Geom=AllCheck Guess=Read Pop=(MK,ReadRadii) Integral=(Grid=
 UltraFine) iop(6/33=2)
 ----------------------------------------------------------------------

 Structure from the checkpoint file:  frag56-conf2.chk
 -----------------------------
 Optimization for frag56-conf2
 -----------------------------
 Charge =  0 Multiplicity = 1

                         Standard orientation:
 ---------------------------------------------------------------------
 Center     Atomic      Atomic             Coordinates (Angstroms)
 Number     Number       Type             X           Y           Z
 ---------------------------------------------------------------------
      1          6           0       -0.227224    1.059918   -0.791461
      2          6           0       -1.549775    1.380846   -0.359258
      3          6           0        0.072989   -0.273678   -0.710935
      4          6           0       -2.237342    0.274401    0.052267
      5          6           0        3.162031    0.210963    0.227179
      6          6           0        4.018542    0.215066    1.483674
      7          6           0        1.385351   -0.946167   -1.024941
      8          7           0        2.361684   -0.890712    0.061352
      9          8           0        3.193433    1.126387   -0.586756
     10         16           0       -1.288869   -1.182163   -0.084387
     11         17           0       -3.868739    0.216001    0.635371
     12          1           0        0.493933    1.791978   -1.138070
     13          1           0       -1.972284    2.378685   -0.356896
     14          1           0        5.038847    0.496808    1.210657
     15          1           0        3.639067    0.980247    2.169738
     16          1           0        4.038205   -0.747075    2.005087
     17          1           0        1.235156   -1.995662   -1.297361
     18          1           0        1.844669   -0.439427   -1.876722
     19          1           0        2.246184   -1.527178    0.837871
 ---------------------------------------------------------------------

 SCF Done:  E(RHF) =  -1256.03207729     A.U. after   15 cycles

 The electronic state is 1-A.
 Alpha  occ. eigenvalues -- -104.84254 -91.98646 -20.53025 -15.59936 -11.36238
 Alpha  occ. eigenvalues --  -11.32806 -11.29025 -11.27863 -11.25493 -11.24694
 Alpha  occ. eigenvalues --  -11.24511 -10.57529  -8.99592  -8.04479  -8.04127
 Alpha  occ. eigenvalues --   -8.04116  -6.67845  -6.67746  -6.67574  -1.38168
 Alpha  occ. eigenvalues --   -1.23861  -1.19940  -1.12688  -1.03660  -0.99856
 Alpha  occ. eigenvalues --   -0.98191  -0.91500  -0.79727  -0.75189  -0.74719
 Alpha  occ. eigenvalues --   -0.69341  -0.68182  -0.65771  -0.61814  -0.59448
 Alpha  occ. eigenvalues --   -0.58302  -0.57689  -0.57310  -0.56219  -0.54924
 Alpha  occ. eigenvalues --   -0.52728  -0.51279  -0.48315  -0.47317  -0.45641
 Alpha  occ. eigenvalues --   -0.42728  -0.40029  -0.35774  -0.31969
 Alpha virt. eigenvalues --    0.11078   0.15632   0.18420   0.19951   0.21027
 Alpha virt. eigenvalues --    0.22332   0.24449   0.26541   0.28359   0.30255
 Alpha virt. eigenvalues --    0.30508   0.30905   0.32627   0.33674   0.38179

 Mulliken atomic charges:
              1
     1  C   -0.169575
     2  C   -0.148845
     3  C   -0.232566
     4  C   -0.346965
     5  C    0.763083
     6  C   -0.579518
     7  C   -0.153677
     8  N   -0.784773
     9  O   -0.626276
    10  S    0.333675
    11  Cl   0.033793
    12  H    0.253637
    13  H    0.233950
    14  H    0.213964
    15  H    0.208312
    16  H    0.171893
    17  H    0.199252
    18  H    0.244325
    19  H    0.386309
 Sum of Mulliken atomic charges =   0.00000

 Dipole moment (field-independent basis, Debye):
    X=              1.4304    Y=             -1.8564    Z=              1.6354  Tot=              2.8577
 Quadrupole moment (field-independent basis, Debye-Ang):
   XX=            -83.7464   YY=            -75.9873   ZZ=            -77.8816
   XY=             -9.5616   XZ=              8.2451   YZ=              0.4308

 Normal termination of Gaussian 09 at Sat Feb 17 21:07:14 2018.
