 Gaussian 09, Revision C.01,
 Gaussian 09:  AM64L-G09RevC.01 23-Sep-2011

 ----------------------------------------------------------------------
 #HF/6-31G* Geom=AllCheck Guess=Read Pop=(MK,ReadRadii) Integral=(Grid=
 UltraFine) iop(6/33=2)
 ----------------------------------------------------------------------

 Structure from the checkpoint file:  frag11-conf0.chk
 -----------------------------
 Optimization for frag11-conf0
 -----------------------------
 Charge =  1 Multiplicity = 1

                         Standard orientation:
 ---------------------------------------------------------------------
 Center     Atomic      Atomic             Coordinates (Angstroms)
 Number     Number       Type             X           Y           Z
 ---------------------------------------------------------------------
      1          6           0        1.646063    3.539142   -0.076905
      2          6           0       -4.735090   -0.015969    0.130697
      3          6           0        0.700026    3.177751    0.884790
      4          6           0        1.902050    2.683786   -1.150147
      5          6           0       -4.169857    0.041817   -1.144854
      6          6           0       -3.910592   -0.171176    1.245405
      7          6           0        0.017626    1.965172    0.779122
      8          6           0        1.220709    1.469601   -1.253904
      9          6           0       -2.787733   -0.054618   -1.304058
     10          6           0       -2.525467   -0.261638    1.086379
     11          6           0        0.278023    1.093390   -0.287139
     12          6           0       -1.942894   -0.196769   -0.192042
     13          6           0        1.657603   -1.741009   -0.095779
     14          6           0        4.063071   -1.546415   -0.220730
     15          6           0        2.864682   -0.180675    1.448921
     16          6           0       -0.431661   -0.255037   -0.424637
     17          6           0        0.256353   -1.349659    0.453674
     18          7           0        2.776145   -1.184261    0.388182
     19          7           0       -0.523697   -2.639909    0.273541
     20          8           0        1.636243   -2.592983   -1.000952
     21          1           0        2.168656    4.487819    0.001695
     22          1           0       -5.811217    0.056703    0.254938
     23          1           0        0.481992    3.846262    1.712536
     24          1           0        2.620486    2.965499   -1.914517
     25          1           0       -4.804433    0.159010   -2.018165
     26          1           0       -4.341220   -0.216799    2.241365
     27          1           0       -0.737447    1.716454    1.518981
     28          1           0        1.417564    0.815136   -2.100265
     29          1           0       -2.356712   -0.002942   -2.301044
     30          1           0       -1.905180   -0.366518    1.974545
     31          1           0        4.512862   -0.659753   -0.679950
     32          1           0        3.901395   -2.311645   -0.976723
     33          1           0        4.737241   -1.924783    0.554265
     34          1           0        1.897643    0.019055    1.903874
     35          1           0        3.242466    0.760968    1.038324
     36          1           0        3.555548   -0.536737    2.220169
     37          1           0       -0.279322   -0.586810   -1.459437
     38          1           0        0.236879   -1.096604    1.512433
     39          1           0       -0.059417   -3.076892   -0.561420
     40          1           0       -1.520962   -2.438995    0.114342
     41          1           0       -0.431371   -3.281535    1.066837
 ---------------------------------------------------------------------

 SCF Done:  E(RHF) =  -839.550040009     A.U. after   14 cycles

 The electronic state is 1-A.
 Alpha  occ. eigenvalues --  -20.67697 -15.84394 -15.74195 -11.51186 -11.46905
 Alpha  occ. eigenvalues --  -11.40438 -11.39017 -11.37694 -11.37318 -11.36583
 Alpha  occ. eigenvalues --  -11.36480 -11.35831 -11.35661 -11.35274 -11.35093
 Alpha  occ. eigenvalues --  -11.34945 -11.34860 -11.34377 -11.34335 -11.34168
 Alpha  occ. eigenvalues --   -1.53678  -1.45602  -1.38659  -1.28789  -1.26126
 Alpha  occ. eigenvalues --   -1.21408  -1.14304  -1.13376  -1.12477  -1.12087
 Alpha  occ. eigenvalues --   -1.09642  -1.07218  -1.02504  -0.95927  -0.93858
 Alpha  occ. eigenvalues --   -0.93577  -0.93175  -0.92229  -0.89139  -0.87602
 Alpha  occ. eigenvalues --   -0.82504  -0.82339  -0.80773  -0.80134  -0.78266
 Alpha  occ. eigenvalues --   -0.77383  -0.75954  -0.74347  -0.74054  -0.72902
 Alpha  occ. eigenvalues --   -0.71619  -0.70361  -0.69894  -0.69220  -0.68866
 Alpha  occ. eigenvalues --   -0.68157  -0.67949  -0.66456  -0.65973  -0.65404
 Alpha  occ. eigenvalues --   -0.62455  -0.61611  -0.60923  -0.60068  -0.59668
 Alpha  occ. eigenvalues --   -0.59301  -0.57558  -0.51015  -0.45758  -0.45480
 Alpha  occ. eigenvalues --   -0.44202  -0.43481
 Alpha virt. eigenvalues --   -0.00036   0.01391   0.02436   0.02765   0.03859
 Alpha virt. eigenvalues --    0.04508   0.09153   0.10860   0.12220   0.12555
 Alpha virt. eigenvalues --    0.14363   0.14860   0.15148   0.16768   0.18325

 Mulliken atomic charges:
              1
     1  C   -0.197859
     2  C   -0.195765
     3  C   -0.197315
     4  C   -0.202421
     5  C   -0.189780
     6  C   -0.189334
     7  C   -0.226688
     8  C   -0.228647
     9  C   -0.210024
    10  C   -0.253666
    11  C    0.028052
    12  C   -0.036431
    13  C    0.835481
    14  C   -0.317368
    15  C   -0.301353
    16  C   -0.232284
    17  C   -0.139002
    18  N   -0.657156
    19  N   -0.891398
    20  O   -0.679691
    21  H    0.235926
    22  H    0.241872
    23  H    0.232267
    24  H    0.233238
    25  H    0.241813
    26  H    0.235972
    27  H    0.222328
    28  H    0.222098
    29  H    0.231303
    30  H    0.200819
    31  H    0.200065
    32  H    0.252477
    33  H    0.199592
    34  H    0.184518
    35  H    0.222164
    36  H    0.206854
    37  H    0.238621
    38  H    0.253095
    39  H    0.505039
    40  H    0.467088
    41  H    0.455496
 Sum of Mulliken atomic charges =   1.00000

 Dipole moment (field-independent basis, Debye):
    X=             -0.3753    Y=             -4.6712    Z=              3.4215  Tot=              5.8024
 Quadrupole moment (field-independent basis, Debye-Ang):
   XX=            -77.8406   YY=            -93.5034   ZZ=           -105.2188
   XY=              9.8805   XZ=              2.1109   YZ=             -7.0771

 Normal termination of Gaussian 09 at Sat Feb 17 21:00:38 2018.
