 Gaussian 09, Revision C.01,
 Gaussian 09:  AM64L-G09RevC.01 23-Sep-2011

 ---------------------------------------------------------
 #B3LYP/6-31G* Integral=(Grid=UltraFine) freq Opt pop=none
 ---------------------------------------------------------

 99/9=1/99;
 -----------------------------
 Optimization for frag11-conf0
 -----------------------------
 Charge =  1 Multiplicity = 1

 SCF Done:  E(RB3LYP) =  -844.950386015     A.U. after   15 cycles
 SCF Done:  E(RB3LYP) =  -844.960251837     A.U. after   14 cycles
 SCF Done:  E(RB3LYP) =  -844.966322225     A.U. after   15 cycles
 SCF Done:  E(RB3LYP) =  -844.968823453     A.U. after   15 cycles
 SCF Done:  E(RB3LYP) =  -844.970966550     A.U. after   13 cycles
 SCF Done:  E(RB3LYP) =  -844.971273350     A.U. after   13 cycles
 SCF Done:  E(RB3LYP) =  -844.971948526     A.U. after   13 cycles
 SCF Done:  E(RB3LYP) =  -844.972755912     A.U. after   13 cycles
 SCF Done:  E(RB3LYP) =  -844.973556005     A.U. after   13 cycles
 SCF Done:  E(RB3LYP) =  -844.973461227     A.U. after   13 cycles
 SCF Done:  E(RB3LYP) =  -844.974151706     A.U. after   10 cycles
 SCF Done:  E(RB3LYP) =  -844.974153449     A.U. after    9 cycles
 SCF Done:  E(RB3LYP) =  -844.974153721     A.U. after    8 cycles
 SCF Done:  E(RB3LYP) =  -844.974154223     A.U. after    8 cycles
 SCF Done:  E(RB3LYP) =  -844.974154619     A.U. after    7 cycles
 SCF Done:  E(RB3LYP) =  -844.974155016     A.U. after    7 cycles
 SCF Done:  E(RB3LYP) =  -844.974155329     A.U. after    7 cycles
 SCF Done:  E(RB3LYP) =  -844.974155469     A.U. after    7 cycles
 SCF Done:  E(RB3LYP) =  -844.974155486     A.U. after    7 cycles
 Optimization completed.
    -- Stationary point found.
 Normal termination of Gaussian 09 at Fri Feb 16 19:53:10 2018.

 --------------------------------------------------------------------
 #N Geom=AllCheck Guess=TCheck SCRF=Check GenChk RB3LYP/6-31G(d) Freq
 --------------------------------------------------------------------

 Structure from the checkpoint file:  frag11-conf0.chk
 -----------------------------
 Optimization for frag11-conf0
 -----------------------------
 Charge =  1 Multiplicity = 1

                         Standard orientation:
 ---------------------------------------------------------------------
 Center     Atomic      Atomic             Coordinates (Angstroms)
 Number     Number       Type             X           Y           Z
 ---------------------------------------------------------------------
      1          6           0        1.646063    3.539142   -0.076905
      2          6           0       -4.735090   -0.015969    0.130697
      3          6           0        0.700026    3.177751    0.884790
      4          6           0        1.902050    2.683786   -1.150147
      5          6           0       -4.169857    0.041817   -1.144854
      6          6           0       -3.910592   -0.171176    1.245405
      7          6           0        0.017626    1.965172    0.779122
      8          6           0        1.220709    1.469601   -1.253904
      9          6           0       -2.787733   -0.054618   -1.304058
     10          6           0       -2.525467   -0.261638    1.086379
     11          6           0        0.278023    1.093390   -0.287139
     12          6           0       -1.942894   -0.196769   -0.192042
     13          6           0        1.657603   -1.741009   -0.095779
     14          6           0        4.063071   -1.546415   -0.220730
     15          6           0        2.864682   -0.180675    1.448921
     16          6           0       -0.431661   -0.255037   -0.424637
     17          6           0        0.256353   -1.349659    0.453674
     18          7           0        2.776145   -1.184261    0.388182
     19          7           0       -0.523697   -2.639909    0.273541
     20          8           0        1.636243   -2.592983   -1.000952
     21          1           0        2.168656    4.487819    0.001695
     22          1           0       -5.811217    0.056703    0.254938
     23          1           0        0.481992    3.846262    1.712536
     24          1           0        2.620486    2.965499   -1.914517
     25          1           0       -4.804433    0.159010   -2.018165
     26          1           0       -4.341220   -0.216799    2.241365
     27          1           0       -0.737447    1.716454    1.518981
     28          1           0        1.417564    0.815136   -2.100265
     29          1           0       -2.356712   -0.002942   -2.301044
     30          1           0       -1.905180   -0.366518    1.974545
     31          1           0        4.512862   -0.659753   -0.679950
     32          1           0        3.901395   -2.311645   -0.976723
     33          1           0        4.737241   -1.924783    0.554265
     34          1           0        1.897643    0.019055    1.903874
     35          1           0        3.242466    0.760968    1.038324
     36          1           0        3.555548   -0.536737    2.220169
     37          1           0       -0.279322   -0.586810   -1.459437
     38          1           0        0.236879   -1.096604    1.512433
     39          1           0       -0.059417   -3.076892   -0.561420
     40          1           0       -1.520962   -2.438995    0.114342
     41          1           0       -0.431371   -3.281535    1.066837
 ---------------------------------------------------------------------

 SCF Done:  E(RB3LYP) =  -844.974155486     A.U. after    1 cycles

 Isotropic polarizability for W=    0.000000      183.81 Bohr**3.
 End of Minotr Frequency-dependent properties file   721 does not exist.

                     1                      2                      3
                     A                      A                      A
 Frequencies --    28.3502                41.6018                51.9966
 Red. masses --     4.2608                 4.1196                 2.9987
 Frc consts  --     0.0020                 0.0042                 0.0048
 IR Inten    --     1.7435                 0.1176                 0.1957

                     4                      5                      6
                     A                      A                      A
 Frequencies --    59.8440                72.9847                85.1912
 Red. masses --     3.8233                 4.2259                 3.3016
 Frc consts  --     0.0081                 0.0133                 0.0141
 IR Inten    --     0.4797                 0.3279                 5.1624

                     7                      8                      9
                     A                      A                      A
 Frequencies --    93.5411               106.5091               122.4053
 Red. masses --     1.7313                 1.7193                 1.3699
 Frc consts  --     0.0089                 0.0115                 0.0121
 IR Inten    --     2.7377                 3.3737                 0.5889

                    10                     11                     12
                     A                      A                      A
 Frequencies --   141.3191               189.0082               231.3187
 Red. masses --     3.2859                 3.9764                 4.4175
 Frc consts  --     0.0387                 0.0837                 0.1393
 IR Inten    --     2.2596                 2.5455                 1.8790

                    13                     14                     15
                     A                      A                      A
 Frequencies --   244.2150               255.8044               284.9207
 Red. masses --     3.3484                 4.3892                 2.9904
 Frc consts  --     0.1177                 0.1692                 0.1430
 IR Inten    --     4.3132                 1.1470                 7.0608

                    16                     17                     18
                     A                      A                      A
 Frequencies --   288.9830               316.7640               321.7587
 Red. masses --     3.4335                 3.1040                 1.1860
 Frc consts  --     0.1689                 0.1835                 0.0723
 IR Inten    --     0.4385                29.3553                 2.7945

                    19                     20                     21
                     A                      A                      A
 Frequencies --   381.7195               412.7025               416.6452
 Red. masses --     3.3892                 3.2981                 2.9652
 Frc consts  --     0.2910                 0.3310                 0.3033
 IR Inten    --     8.1273                33.2539                 0.1149

                    22                     23                     24
                     A                      A                      A
 Frequencies --   416.9626               435.3168               492.8435
 Red. masses --     2.9747                 3.2319                 3.7710
 Frc consts  --     0.3047                 0.3608                 0.5397
 IR Inten    --     2.8084                62.2597                 0.2906

                    25                     26                     27
                     A                      A                      A
 Frequencies --   508.8964               542.1487               605.4931
 Red. masses --     3.7487                 3.6248                 5.9350
 Frc consts  --     0.5720                 0.6277                 1.2820
 IR Inten    --    22.9317                11.9131                12.0331

                    28                     29                     30
                     A                      A                      A
 Frequencies --   629.8578               634.1397               635.4979
 Red. masses --     5.6896                 6.0558                 5.6030
 Frc consts  --     1.3299                 1.4348                 1.3332
 IR Inten    --     1.9152                 1.3438                 4.2084

                    31                     32                     33
                     A                      A                      A
 Frequencies --   655.2636               711.9859               718.9366
 Red. masses --     5.1027                 4.2730                 2.2942
 Frc consts  --     1.2909                 1.2762                 0.6987
 IR Inten    --     3.7132                 5.6284                20.1207

                    34                     35                     36
                     A                      A                      A
 Frequencies --   721.2035               762.8167               772.9586
 Red. masses --     2.0887                 2.0233                 1.8146
 Frc consts  --     0.6401                 0.6937                 0.6388
 IR Inten    --    32.6100                28.6280                17.3009

                    37                     38                     39
                     A                      A                      A
 Frequencies --   798.7416               849.7408               863.5785
 Red. masses --     3.1773                 3.4889                 1.2552
 Frc consts  --     1.1943                 1.4843                 0.5515
 IR Inten    --    34.2661                11.5696                 0.3065

                    40                     41                     42
                     A                      A                      A
 Frequencies --   863.8780               889.9619               919.7548
 Red. masses --     1.2541                 4.0159                 2.0131
 Frc consts  --     0.5514                 1.8740                 1.0034
 IR Inten    --     0.0757                 7.6446                 7.6033

                    43                     44                     45
                     A                      A                      A
 Frequencies --   938.1421               944.2945               962.0598
 Red. masses --     1.4966                 1.8613                 2.2179
 Frc consts  --     0.7760                 0.9779                 1.2094
 IR Inten    --     4.3123                 3.9422                12.5557

                    46                     47                     48
                     A                      A                      A
 Frequencies --   978.7515               981.7687               991.6207
 Red. masses --     1.3592                 1.3607                 3.8013
 Frc consts  --     0.7671                 0.7727                 2.2023
 IR Inten    --     0.0055                 0.5663                20.1663

                    49                     50                     51
                     A                      A                      A
 Frequencies --  1012.7386              1015.5343              1018.6278
 Red. masses --     1.4225                 3.6312                 1.6389
 Frc consts  --     0.8596                 2.2064                 1.0019
 IR Inten    --     0.2652                 5.4826                 1.6028

                    52                     53                     54
                     A                      A                      A
 Frequencies --  1019.3536              1058.6503              1059.7746
 Red. masses --     3.3510                 2.3658                 2.2133
 Frc consts  --     2.0515                 1.5622                 1.4646
 IR Inten    --     2.8554                 0.3196                 3.4442

                    55                     56                     57
                     A                      A                      A
 Frequencies --  1081.8191              1102.0508              1113.2391
 Red. masses --     1.4571                 1.5438                 1.5039
 Frc consts  --     1.0047                 1.1047                 1.0981
 IR Inten    --    16.8171                53.2043                23.1030

                    58                     59                     60
                     A                      A                      A
 Frequencies --  1115.9019              1130.5920              1148.1409
 Red. masses --     1.5513                 1.2336                 1.5168
 Frc consts  --     1.1381                 0.9291                 1.1781
 IR Inten    --    23.4577                 1.1926                31.1852

                    61                     62                     63
                     A                      A                      A
 Frequencies --  1178.3661              1184.3458              1198.6045
 Red. masses --     1.7423                 1.3746                 1.3685
 Frc consts  --     1.4254                 1.1360                 1.1583
 IR Inten    --    69.3032                 1.1463                 0.8150

                    64                     65                     66
                     A                      A                      A
 Frequencies --  1200.4925              1202.2456              1219.6860
 Red. masses --     1.3262                 1.5444                 1.1813
 Frc consts  --     1.1261                 1.3152                 1.0354
 IR Inten    --     0.9957                 0.9095                 0.9859

                    67                     68                     69
                     A                      A                      A
 Frequencies --  1221.3262              1225.4129              1259.8198
 Red. masses --     1.4213                 1.6563                 2.4009
 Frc consts  --     1.2491                 1.4654                 2.2451
 IR Inten    --     0.7904                 0.2039                26.9896

                    70                     71                     72
                     A                      A                      A
 Frequencies --  1276.8848              1295.5288              1342.4893
 Red. masses --     2.3433                 2.1442                 2.4965
 Frc consts  --     2.2511                 2.1204                 2.6510
 IR Inten    --    20.9518                 3.5585                 1.6795

                    73                     74                     75
                     A                      A                      A
 Frequencies --  1367.0271              1369.1138              1371.5221
 Red. masses --     2.5480                 1.9702                 1.3371
 Frc consts  --     2.8055                 2.1759                 1.4819
 IR Inten    --     0.0545                 5.6856                10.6529

                    76                     77                     78
                     A                      A                      A
 Frequencies --  1388.5666              1403.3690              1438.8022
 Red. masses --     1.2672                 1.3588                 1.2158
 Frc consts  --     1.4395                 1.5767                 1.4829
 IR Inten    --     2.7263                 0.3120               396.0084

                    79                     80                     81
                     A                      A                      A
 Frequencies --  1461.4157              1471.1277              1498.0570
 Red. masses --     1.1517                 2.1760                 1.6290
 Frc consts  --     1.4493                 2.7746                 2.1540
 IR Inten    --     6.9087                38.1494                 2.2630

                    82                     83                     84
                     A                      A                      A
 Frequencies --  1501.0216              1503.7774              1505.4027
 Red. masses --     1.2819                 1.5985                 1.3561
 Frc consts  --     1.7017                 2.1297                 1.8107
 IR Inten    --    19.6370                14.8641                 5.7194

                    85                     86                     87
                     A                      A                      A
 Frequencies --  1525.8947              1528.8358              1542.0327
 Red. masses --     1.0930                 1.0431                 2.1164
 Frc consts  --     1.4993                 1.4365                 2.9650
 IR Inten    --    12.0806                24.4476                16.2493

                    88                     89                     90
                     A                      A                      A
 Frequencies --  1544.5217              1562.5621              1638.4874
 Red. masses --     2.1316                 1.4199                 4.7217
 Frc consts  --     2.9960                 2.0426                 7.4686
 IR Inten    --     7.2639                47.1730                 1.9777

                    91                     92                     93
                     A                      A                      A
 Frequencies --  1642.2739              1648.0129              1656.1523
 Red. masses --     4.9808                 1.2990                 3.6726
 Frc consts  --     7.9148                 2.0786                 5.9350
 IR Inten    --     5.9493                34.2734                 9.8103

                    94                     95                     96
                     A                      A                      A
 Frequencies --  1659.5996              1692.1271              1743.6494
 Red. masses --     4.6583                 1.0484                 5.1556
 Frc consts  --     7.5594                 1.7686                 9.2351
 IR Inten    --     3.5306                16.9877               232.6343

                    97                     98                     99
                     A                      A                      A
 Frequencies --  3051.6309              3067.9224              3073.3954
 Red. masses --     1.0841                 1.0371                 1.0389
 Frc consts  --     5.9480                 5.7512                 5.7818
 IR Inten    --     3.7132                12.0914                35.4198

                   100                    101                    102
                     A                      A                      A
 Frequencies --  3086.2895              3130.3901              3132.3427
 Red. masses --     1.0644                 1.1058                 1.1063
 Frc consts  --     5.9734                 6.3846                 6.3952
 IR Inten    --   213.9263                14.7809                 3.7805

                   103                    104                    105
                     A                      A                      A
 Frequencies --  3162.9919              3171.7929              3180.0204
 Red. masses --     1.0885                 1.0879                 1.0890
 Frc consts  --     6.4163                 6.4481                 6.4885
 IR Inten    --     0.6926                16.8431                 5.4172

                   106                    107                    108
                     A                      A                      A
 Frequencies --  3188.6855              3196.9162              3204.7343
 Red. masses --     1.0891                 1.0865                 1.0898
 Frc consts  --     6.5246                 6.5422                 6.5947
 IR Inten    --     2.9767                 1.2380                 2.1505

                   109                    110                    111
                     A                      A                      A
 Frequencies --  3205.4582              3210.1618              3212.2702
 Red. masses --     1.0893                 1.0967                 1.0937
 Frc consts  --     6.5942                 6.6585                 6.6492
 IR Inten    --     0.6143                10.3448                10.2458

                   112                    113                    114
                     A                      A                      A
 Frequencies --  3213.3611              3213.8438              3222.0397
 Red. masses --     1.0998                 1.0933                 1.0979
 Frc consts  --     6.6907                 6.6532                 6.7155
 IR Inten    --     1.7007                 9.7451                 7.3038

                   115                    116                    117
                     A                      A                      A
 Frequencies --  3225.1161              3382.4156              3497.7668
 Red. masses --     1.0978                 1.0664                 1.0861
 Frc consts  --     6.7274                 7.1886                 7.8289
 IR Inten    --     6.3349               206.3784               105.3814

 - Thermochemistry -
 -------------------
 Temperature   298.150 Kelvin.  Pressure   1.00000 Atm.
 Atom     1 has atomic number  6 and mass  12.00000

 Molecular mass:   269.16539 amu.
 Principal axes and moments of inertia in atomic units:
                           1         2         3
     Eigenvalues --  3807.927256688.792748918.54505
           X            0.99998   0.00546   0.00189
           Y           -0.00546   0.99998  -0.00203
           Z           -0.00190   0.00202   1.00000
 This molecule is an asymmetric top.
 Rotational symmetry number  1.
 Warning -- assumption of classical behavior for rotation
           may cause significant error
 Rotational temperatures (Kelvin)      0.02275     0.01295     0.00971
 Rotational constants (GHZ):           0.47394     0.26982     0.20236
 Zero-point vibrational energy     931584.2 (Joules/Mol)
                                  222.65397 (Kcal/Mol)
 Warning -- explicit consideration of  27 degrees of freedom as
           vibrations may cause significant error
 Vibrational temperatures:     40.79    59.86    74.81    86.10   105.01
          (Kelvin)            122.57   134.58   153.24   176.11   203.33
                              271.94   332.82   351.37   368.04   409.94
                              415.78   455.75   462.94   549.21   593.79
                              599.46   599.92   626.32   709.09   732.19
                              780.03   871.17   906.22   912.38   914.34
                              942.78  1024.39  1034.39  1037.65  1097.52
                             1112.11  1149.21  1222.59  1242.50  1242.93
                             1280.46  1323.32  1349.78  1358.63  1384.19
                             1408.20  1412.54  1426.72  1457.10  1461.13
                             1465.58  1466.62  1523.16  1524.78  1556.49
                             1585.60  1601.70  1605.53  1626.67  1651.92
                             1695.40  1704.01  1724.52  1727.24  1729.76
                             1754.85  1757.21  1763.09  1812.60  1837.15
                             1863.97  1931.54  1966.84  1969.85  1973.31
                             1997.84  2019.13  2070.11  2102.65  2116.62
                             2155.37  2159.63  2163.60  2165.94  2195.42
                             2199.65  2218.64  2222.22  2248.18  2357.41
                             2362.86  2371.12  2382.83  2387.79  2434.59
                             2508.72  4390.61  4414.05  4421.93  4440.48
                             4503.93  4506.74  4550.83  4563.50  4575.33
                             4587.80  4599.64  4610.89  4611.93  4618.70
                             4621.73  4623.30  4624.00  4635.79  4640.22
                             4866.54  5032.50

 Zero-point correction=                           0.354822 (Hartree/Particle)
 Thermal correction to Energy=                    0.373735
 Thermal correction to Enthalpy=                  0.374679
 Thermal correction to Gibbs Free Energy=         0.306478
 Sum of electronic and zero-point Energies=           -844.619334
 Sum of electronic and thermal Energies=              -844.600421
 Sum of electronic and thermal Enthalpies=            -844.599476
 Sum of electronic and thermal Free Energies=         -844.667677

                     E (Thermal)             CV                S
                      KCal/Mol        Cal/Mol-Kelvin    Cal/Mol-Kelvin
 Total                  234.522             72.336            143.541
 Electronic               0.000              0.000              0.000
 Translational            0.889              2.981             42.670
 Rotational               0.889              2.981             33.785
 Vibrational            232.745             66.375             67.087
 Vibration     1          0.593              1.984              5.942
 Vibration     2          0.594              1.981              5.181
 Vibration     3          0.596              1.977              4.740
 Vibration     4          0.597              1.973              4.462
 Vibration     5          0.599              1.967              4.071
 Vibration     6          0.601              1.959              3.768
 Vibration     7          0.603              1.954              3.585
 Vibration     8          0.605              1.944              3.332
 Vibration     9          0.610              1.930              3.062
 Vibration    10          0.615              1.912              2.786
 Vibration    11          0.633              1.855              2.238
 Vibration    12          0.653              1.793              1.869
 Vibration    13          0.660              1.772              1.772
 Vibration    14          0.666              1.753              1.690
 Vibration    15          0.683              1.702              1.504
 Vibration    16          0.686              1.694              1.480
 Vibration    17          0.704              1.642              1.327
 Vibration    18          0.707              1.632              1.301
 Vibration    19          0.751              1.509              1.032
 Vibration    20          0.776              1.443              0.917
 Vibration    21          0.780              1.434              0.903
 Vibration    22          0.780              1.433              0.902
 Vibration    23          0.796              1.393              0.841
 Vibration    24          0.849              1.266              0.676
 Vibration    25          0.864              1.230              0.636
 Vibration    26          0.897              1.157              0.561
 Vibration    27          0.964              1.020              0.440

 Optimization completed.
    -- Stationary point found.
 Normal termination of Gaussian 09 at Fri Feb 16 21:31:09 2018.
