 Gaussian 09, Revision C.01,
 Gaussian 09:  AM64L-G09RevC.01 23-Sep-2011

 ---------------------------------------------------------
 #B3LYP/6-31G* Integral=(Grid=UltraFine) freq Opt pop=none
 ---------------------------------------------------------

 99/9=1/99;
 -----------------------------
 Optimization for frag49-conf0
 -----------------------------
 Charge =  0 Multiplicity = 1

 SCF Done:  E(RB3LYP) =  -456.532940887     A.U. after   14 cycles
 SCF Done:  E(RB3LYP) =  -456.535368913     A.U. after   12 cycles
 SCF Done:  E(RB3LYP) =  -456.535545650     A.U. after   11 cycles
 SCF Done:  E(RB3LYP) =  -456.535525104     A.U. after   10 cycles
 SCF Done:  E(RB3LYP) =  -456.535577509     A.U. after   10 cycles
 SCF Done:  E(RB3LYP) =  -456.535591197     A.U. after    9 cycles
 SCF Done:  E(RB3LYP) =  -456.535636211     A.U. after   10 cycles
 SCF Done:  E(RB3LYP) =  -456.535676326     A.U. after   11 cycles
 SCF Done:  E(RB3LYP) =  -456.535715828     A.U. after   10 cycles
 SCF Done:  E(RB3LYP) =  -456.535753036     A.U. after   11 cycles
 SCF Done:  E(RB3LYP) =  -456.536170255     A.U. after    8 cycles
 SCF Done:  E(RB3LYP) =  -456.536171367     A.U. after    8 cycles
 SCF Done:  E(RB3LYP) =  -456.536171887     A.U. after    9 cycles
 SCF Done:  E(RB3LYP) =  -456.536172042     A.U. after    8 cycles
 SCF Done:  E(RB3LYP) =  -456.536172258     A.U. after    8 cycles
 SCF Done:  E(RB3LYP) =  -456.536172430     A.U. after    8 cycles
 SCF Done:  E(RB3LYP) =  -456.536172502     A.U. after    7 cycles
 SCF Done:  E(RB3LYP) =  -456.536172581     A.U. after    8 cycles
 SCF Done:  E(RB3LYP) =  -456.536172645     A.U. after    7 cycles
 Optimization completed.
    -- Stationary point found.
 Normal termination of Gaussian 09 at Fri Feb 16 21:29:24 2018.

 --------------------------------------------------------------------
 #N Geom=AllCheck Guess=TCheck SCRF=Check GenChk RB3LYP/6-31G(d) Freq
 --------------------------------------------------------------------

 Structure from the checkpoint file:  frag49-conf0.chk
 -----------------------------
 Optimization for frag49-conf0
 -----------------------------
 Charge =  0 Multiplicity = 1

                         Standard orientation:
 ---------------------------------------------------------------------
 Center     Atomic      Atomic             Coordinates (Angstroms)
 Number     Number       Type             X           Y           Z
 ---------------------------------------------------------------------
      1          6           0        2.339352   -0.175688    0.000037
      2          6           0       -1.358804    0.155255   -0.000070
      3          6           0        3.406740    0.908416    0.000250
      4          6           0       -3.825278   -0.019031    0.000141
      5          6           0       -0.057549   -0.652850   -0.000418
      6          7           0       -2.491696   -0.596630    0.000395
      7          7           0        1.051850    0.265770   -0.000215
      8          8           0        2.616321   -1.371405    0.000094
      9          8           0       -1.354815    1.383170   -0.000155
     10          1           0        4.042563    0.778046    0.881457
     11          1           0        4.042073    0.778924   -0.881448
     12          1           0        3.000706    1.924649    0.000854
     13          1           0       -4.386514   -0.321496    0.891720
     14          1           0       -4.386025   -0.321014   -0.891912
     15          1           0       -3.711596    1.065502    0.000475
     16          1           0       -0.020559   -1.311982    0.878537
     17          1           0       -0.020789   -1.311414   -0.879826
     18          1           0       -2.400392   -1.603193   -0.000018
     19          1           0        0.800636    1.247269   -0.000254
 ---------------------------------------------------------------------

 SCF Done:  E(RB3LYP) =  -456.536172645     A.U. after    1 cycles

 Isotropic polarizability for W=    0.000000       71.35 Bohr**3.
 End of Minotr Frequency-dependent properties file   721 does not exist.

                     1                      2                      3
                     A                      A                      A
 Frequencies --    21.6665                42.3877                56.3909
 Red. masses --     3.5293                 3.8876                 1.1536
 Frc consts  --     0.0010                 0.0041                 0.0022
 IR Inten    --     0.1311                 6.8099                 3.2779

                     4                      5                      6
                     A                      A                      A
 Frequencies --    72.1056               111.9830               140.7543
 Red. masses --     1.1453                 4.0238                 3.1001
 Frc consts  --     0.0035                 0.0297                 0.0362
 IR Inten    --     0.0988                14.4392                 4.2240

                     7                      8                      9
                     A                      A                      A
 Frequencies --   173.3547               249.1716               287.7560
 Red. masses --     2.3828                 4.6750                 5.2679
 Frc consts  --     0.0422                 0.1710                 0.2570
 IR Inten    --    18.4178                 5.9758                 2.6035

                    10                     11                     12
                     A                      A                      A
 Frequencies --   376.0799               449.6607               490.8808
 Red. masses --     4.1710                 1.3159                 3.3669
 Frc consts  --     0.3476                 0.1568                 0.4780
 IR Inten    --    23.8659                66.8566                10.4792

                    13                     14                     15
                     A                      A                      A
 Frequencies --   510.6651               608.8948               622.3049
 Red. masses --     1.3056                 2.0487                 4.9745
 Frc consts  --     0.2006                 0.4475                 1.1350
 IR Inten    --   109.7542                 0.0568                 9.5849

                    16                     17                     18
                     A                      A                      A
 Frequencies --   648.6783               700.7105               895.5857
 Red. masses --     1.8565                 3.8874                 3.3899
 Frc consts  --     0.4603                 1.1246                 1.6020
 IR Inten    --     4.2550                 0.6651                 3.6029

                    19                     20                     21
                     A                      A                      A
 Frequencies --   993.1517              1009.3951              1018.1031
 Red. masses --     2.8079                 2.0024                 2.0551
 Frc consts  --     1.6318                 1.2021                 1.2550
 IR Inten    --    17.1297                10.3296                 0.7838

                    22                     23                     24
                     A                      A                      A
 Frequencies --  1067.7078              1070.6343              1162.7073
 Red. masses --     3.7949                 1.7057                 1.2730
 Frc consts  --     2.5489                 1.1520                 1.0140
 IR Inten    --     5.3384                 9.6172                 0.7811

                    25                     26                     27
                     A                      A                      A
 Frequencies --  1176.4728              1189.1647              1246.3986
 Red. masses --     1.9499                 3.0520                 1.0871
 Frc consts  --     1.5901                 2.5429                 0.9950
 IR Inten    --    32.2051                21.6549                 0.0335

                    28                     29                     30
                     A                      A                      A
 Frequencies --  1252.2466              1278.7443              1386.5184
 Red. masses --     1.6428                 1.7541                 1.6813
 Frc consts  --     1.5178                 1.6899                 1.9044
 IR Inten    --   107.2644                18.9217                44.9494

                    31                     32                     33
                     A                      A                      A
 Frequencies --  1427.2298              1463.1631              1502.3741
 Red. masses --     1.2796                 1.1743                 1.0458
 Frc consts  --     1.5357                 1.4812                 1.3908
 IR Inten    --    19.9068                20.1265                 5.3812

                    34                     35                     36
                     A                      A                      A
 Frequencies --  1510.7193              1522.9290              1528.0471
 Red. masses --     1.1278                 1.1699                 1.0910
 Frc consts  --     1.5166                 1.5987                 1.5009
 IR Inten    --   100.5454               108.9812                11.2850

                    37                     38                     39
                     A                      A                      A
 Frequencies --  1529.2844              1549.4528              1595.9245
 Red. masses --     1.0443                 2.1637                 1.8173
 Frc consts  --     1.4390                 3.0606                 2.7271
 IR Inten    --     7.3199               348.1272               127.3707

                    40                     41                     42
                     A                      A                      A
 Frequencies --  1771.5092              1788.9570              3030.2429
 Red. masses --    10.4052                 8.2491                 1.0582
 Frc consts  --    19.2392                15.5544                 5.7248
 IR Inten    --   369.2760                86.8281                31.8765

                    43                     44                     45
                     A                      A                      A
 Frequencies --  3051.7144              3052.8897              3064.8164
 Red. masses --     1.0368                 1.1040                 1.0352
 Frc consts  --     5.6892                 6.0624                 5.7293
 IR Inten    --    56.2617                17.3041                 7.7544

                    46                     47                     48
                     A                      A                      A
 Frequencies --  3104.8333              3139.2165              3141.7483
 Red. masses --     1.1063                 1.1010                 1.1044
 Frc consts  --     6.2834                 6.3928                 6.4226
 IR Inten    --    31.4478                 7.6654                19.9986

                    49                     50                     51
                     A                      A                      A
 Frequencies --  3180.6660              3591.6196              3617.4115
 Red. masses --     1.0984                 1.0777                 1.0774
 Frc consts  --     6.5472                 8.1911                 8.3068
 IR Inten    --     0.9010                91.7035                24.8291

 - Thermochemistry -
 -------------------
 Temperature   298.150 Kelvin.  Pressure   1.00000 Atm.
 Atom     1 has atomic number  6 and mass  12.00000

 Molecular mass:   130.07423 amu.
 Principal axes and moments of inertia in atomic units:
                           1         2         3
     Eigenvalues --   359.301472678.913383004.45243
           X            0.99971   0.02411   0.00000
           Y           -0.02411   0.99971   0.00002
           Z            0.00000  -0.00002   1.00000
 This molecule is an asymmetric top.
 Rotational symmetry number  1.
 Rotational temperatures (Kelvin)      0.24106     0.03233     0.02883
 Rotational constants (GHZ):           5.02292     0.67368     0.60069
 Zero-point vibrational energy     415552.9 (Joules/Mol)
                                   99.31953 (Kcal/Mol)
 Warning -- explicit consideration of  14 degrees of freedom as
           vibrations may cause significant error
 Vibrational temperatures:     31.17    60.99    81.13   103.74   161.12
          (Kelvin)            202.51   249.42   358.50   414.02   541.09
                              646.96   706.27   734.73   876.06   895.36
                              933.30  1008.16  1288.55  1428.92  1452.29
                             1464.82  1536.19  1540.40  1672.87  1692.68
                             1710.94  1793.29  1801.70  1839.83  1994.89
                             2053.46  2105.16  2161.58  2173.59  2191.15
                             2198.52  2200.30  2229.31  2296.18  2548.80
                             2573.91  4359.84  4390.73  4392.42  4409.58
                             4467.16  4516.63  4520.27  4576.26  5167.53
                             5204.64

 Zero-point correction=                           0.158276 (Hartree/Particle)
 Thermal correction to Energy=                    0.169327
 Thermal correction to Enthalpy=                  0.170271
 Thermal correction to Gibbs Free Energy=         0.119192
 Sum of electronic and zero-point Energies=           -456.377897
 Sum of electronic and thermal Energies=              -456.366846
 Sum of electronic and thermal Enthalpies=            -456.365901
 Sum of electronic and thermal Free Energies=         -456.416980

                     E (Thermal)             CV                S
                      KCal/Mol        Cal/Mol-Kelvin    Cal/Mol-Kelvin
 Total                  106.254             36.411            107.505
 Electronic               0.000              0.000              0.000
 Translational            0.889              2.981             40.502
 Rotational               0.889              2.981             29.449
 Vibrational            104.477             30.449             37.554
 Vibration     1          0.593              1.985              6.475
 Vibration     2          0.595              1.980              5.144
 Vibration     3          0.596              1.975              4.580
 Vibration     4          0.598              1.967              4.095
 Vibration     5          0.607              1.940              3.234
 Vibration     6          0.615              1.913              2.794
 Vibration     7          0.627              1.875              2.399
 Vibration     8          0.662              1.764              1.736
 Vibration     9          0.685              1.696              1.487
 Vibration    10          0.747              1.521              1.055
 Vibration    11          0.809              1.362              0.797
 Vibration    12          0.847              1.270              0.681
 Vibration    13          0.866              1.226              0.632
 Vibration    14          0.968              1.013              0.435

 Optimization completed.
    -- Stationary point found.
 Normal termination of Gaussian 09 at Fri Feb 16 21:36:32 2018.
