 Gaussian 09, Revision C.01,
 Gaussian 09:  AM64L-G09RevC.01 23-Sep-2011

 ----------------------------------------------------------------------
 #HF/6-31G* Geom=AllCheck Guess=Read Pop=(MK,ReadRadii) Integral=(Grid=
 UltraFine) iop(6/33=2)
 ----------------------------------------------------------------------

 Structure from the checkpoint file:  frag49-conf0.chk
 -----------------------------
 Optimization for frag49-conf0
 -----------------------------
 Charge =  0 Multiplicity = 1

                         Standard orientation:
 ---------------------------------------------------------------------
 Center     Atomic      Atomic             Coordinates (Angstroms)
 Number     Number       Type             X           Y           Z
 ---------------------------------------------------------------------
      1          6           0        2.339352   -0.175688    0.000037
      2          6           0       -1.358804    0.155255   -0.000070
      3          6           0        3.406740    0.908416    0.000250
      4          6           0       -3.825278   -0.019031    0.000141
      5          6           0       -0.057549   -0.652850   -0.000418
      6          7           0       -2.491696   -0.596630    0.000395
      7          7           0        1.051850    0.265770   -0.000215
      8          8           0        2.616321   -1.371405    0.000094
      9          8           0       -1.354815    1.383170   -0.000155
     10          1           0        4.042563    0.778046    0.881457
     11          1           0        4.042073    0.778924   -0.881448
     12          1           0        3.000706    1.924649    0.000854
     13          1           0       -4.386514   -0.321496    0.891720
     14          1           0       -4.386025   -0.321014   -0.891912
     15          1           0       -3.711596    1.065502    0.000475
     16          1           0       -0.020559   -1.311982    0.878537
     17          1           0       -0.020789   -1.311414   -0.879826
     18          1           0       -2.400392   -1.603193   -0.000018
     19          1           0        0.800636    1.247269   -0.000254
 ---------------------------------------------------------------------

 SCF Done:  E(RHF) =  -453.819592155     A.U. after   13 cycles

 The electronic state is 1-A.
 Alpha  occ. eigenvalues --  -20.54172 -20.51591 -15.60521 -15.58487 -11.37033
 Alpha  occ. eigenvalues --  -11.34959 -11.28455 -11.27150 -11.23455  -1.39370
 Alpha  occ. eigenvalues --   -1.36760  -1.24200  -1.22642  -1.02959  -0.98387
 Alpha  occ. eigenvalues --   -0.92645  -0.80381  -0.78984  -0.72373  -0.66715
 Alpha  occ. eigenvalues --   -0.65973  -0.65626  -0.63119  -0.62100  -0.58987
 Alpha  occ. eigenvalues --   -0.58367  -0.56300  -0.55711  -0.54899  -0.53240
 Alpha  occ. eigenvalues --   -0.49395  -0.43907  -0.41288  -0.40604  -0.38280
 Alpha virt. eigenvalues --    0.18100   0.20561   0.20957   0.23850   0.25981
 Alpha virt. eigenvalues --    0.26792   0.28469   0.30885   0.31258   0.33292
 Alpha virt. eigenvalues --    0.33715   0.34994   0.35218   0.39288   0.41214

 Mulliken atomic charges:
              1
     1  C    0.767670
     2  C    0.767012
     3  C   -0.575009
     4  C   -0.289137
     5  C   -0.164832
     6  N   -0.802678
     7  N   -0.833101
     8  O   -0.634894
     9  O   -0.642757
    10  H    0.205721
    11  H    0.205707
    12  H    0.174782
    13  H    0.174499
    14  H    0.174477
    15  H    0.232441
    16  H    0.210187
    17  H    0.210146
    18  H    0.390501
    19  H    0.429267
 Sum of Mulliken atomic charges =   0.00000

 Dipole moment (field-independent basis, Debye):
    X=             -2.9607    Y=             -0.1065    Z=             -0.0012  Tot=              2.9626
 Quadrupole moment (field-independent basis, Debye-Ang):
   XX=            -48.3199   YY=            -58.3129   ZZ=            -53.7874
   XY=             16.1758   XZ=              0.0017   YZ=              0.0021

 Normal termination of Gaussian 09 at Sat Feb 17 21:04:30 2018.
