 Gaussian 09, Revision C.01,
 Gaussian 09:  AM64L-G09RevC.01 23-Sep-2011

 ---------------------------------------------------------
 #B3LYP/6-31G* Integral=(Grid=UltraFine) freq Opt pop=none
 ---------------------------------------------------------

 99/9=1/99;
 -----------------------------
 Optimization for frag42-conf0
 -----------------------------
 Charge =  0 Multiplicity = 1

 SCF Done:  E(RB3LYP) =  -287.828073519     A.U. after   14 cycles
 SCF Done:  E(RB3LYP) =  -287.830072395     A.U. after   14 cycles
 SCF Done:  E(RB3LYP) =  -287.830193444     A.U. after   10 cycles
 SCF Done:  E(RB3LYP) =  -287.830204054     A.U. after    8 cycles
 SCF Done:  E(RB3LYP) =  -287.830205868     A.U. after    8 cycles
 Optimization completed.
    -- Stationary point found.
 Normal termination of Gaussian 09 at Fri Feb 16 20:43:13 2018.

 --------------------------------------------------------------------
 #N Geom=AllCheck Guess=TCheck SCRF=Check GenChk RB3LYP/6-31G(d) Freq
 --------------------------------------------------------------------

 Structure from the checkpoint file:  frag42-conf0.chk
 -----------------------------
 Optimization for frag42-conf0
 -----------------------------
 Charge =  0 Multiplicity = 1

                         Standard orientation:
 ---------------------------------------------------------------------
 Center     Atomic      Atomic             Coordinates (Angstroms)
 Number     Number       Type             X           Y           Z
 ---------------------------------------------------------------------
      1          6           0        0.189668    0.762503    0.000000
      2          6           0       -1.051918    1.648873    0.000000
      3          6           0        1.161915   -1.477427    0.000000
      4          6           0       -1.286087   -1.273911    0.000000
      5          7           0        0.000000   -0.602013    0.000000
      6          8           0        1.310524    1.261219    0.000000
      7          1           0       -1.675889    1.484615    0.885906
      8          1           0       -0.706188    2.682947    0.000000
      9          1           0       -1.675889    1.484615   -0.885906
     10          1           0        1.159857   -2.121598    0.889827
     11          1           0        2.057444   -0.857768    0.000000
     12          1           0        1.159857   -2.121598   -0.889827
     13          1           0       -1.388934   -1.914276   -0.887631
     14          1           0       -2.106987   -0.558555    0.000000
     15          1           0       -1.388934   -1.914276    0.887631
 ---------------------------------------------------------------------

 SCF Done:  E(RB3LYP) =  -287.830205868     A.U. after    1 cycles

 Isotropic polarizability for W=    0.000000       52.43 Bohr**3.
 End of Minotr Frequency-dependent properties file   721 does not exist.

                     1                      2                      3
                    A"                     A"                     A"
 Frequencies --    54.7819               107.8547               152.3745
 Red. masses --     1.3637                 1.7278                 1.3530
 Frc consts  --     0.0024                 0.0118                 0.0185
 IR Inten    --     0.0087                 1.1685                 0.6235

                     4                      5                      6
                    A"                     A"                     A'
 Frequencies --   189.9685               245.2982               323.7598
 Red. masses --     1.1767                 1.6218                 3.0461
 Frc consts  --     0.0250                 0.0575                 0.1881
 IR Inten    --     1.9459                 3.8847                 4.9806

                     7                      8                      9
                    A'                     A'                     A"
 Frequencies --   402.3417               466.7387               589.5858
 Red. masses --     2.5020                 3.0042                 2.8506
 Frc consts  --     0.2386                 0.3856                 0.5838
 IR Inten    --     2.1248                 8.7946                 4.5393

                    10                     11                     12
                    A'                     A'                     A'
 Frequencies --   591.9474               735.6761               975.4516
 Red. masses --     4.9206                 3.7029                 2.5141
 Frc consts  --     1.0159                 1.1808                 1.4094
 IR Inten    --     9.2581                 0.8606                 0.3071

                    13                     14                     15
                    A'                     A"                     A'
 Frequencies --  1033.3599              1059.6086              1089.5151
 Red. masses --     1.6027                 1.7074                 1.3606
 Frc consts  --     1.0083                 1.1295                 0.9516
 IR Inten    --    65.8641                 4.3782                 3.5263

                    16                     17                     18
                    A"                     A"                     A'
 Frequencies --  1139.8579              1187.8032              1208.0906
 Red. masses --     1.2199                 1.3616                 2.2037
 Frc consts  --     0.9339                 1.1319                 1.8950
 IR Inten    --     0.0428                 1.6299                86.5211

                    19                     20                     21
                    A'                     A'                     A'
 Frequencies --  1294.0769              1410.1327              1443.0639
 Red. masses --     5.7292                 1.3182                 1.7813
 Frc consts  --     5.6528                 1.5444                 2.1855
 IR Inten    --    44.5704                 8.3963               111.6897

                    22                     23                     24
                    A'                     A'                     A"
 Frequencies --  1455.0993              1489.9820              1506.2713
 Red. masses --     1.4569                 1.1284                 1.0432
 Frc consts  --     1.8175                 1.4760                 1.3945
 IR Inten    --    71.5302                 6.3713                 8.7530

                    25                     26                     27
                    A'                     A"                     A'
 Frequencies --  1512.4433              1527.1868              1533.2739
 Red. masses --     1.1122                 1.0430                 1.0726
 Frc consts  --     1.4990                 1.4332                 1.4856
 IR Inten    --    17.4419                 9.5133                 8.2388

                    28                     29                     30
                    A"                     A'                     A'
 Frequencies --  1533.4967              1567.1672              1766.8013
 Red. masses --     1.0459                 1.2077                 9.1411
 Frc consts  --     1.4492                 1.7476                16.8123
 IR Inten    --     6.2163                28.6692               303.3679

                    31                     32                     33
                    A'                     A'                     A'
 Frequencies --  3019.5693              3029.8134              3057.1877
 Red. masses --     1.0408                 1.0402                 1.0397
 Frc consts  --     5.5913                 5.6262                 5.7252
 IR Inten    --    37.9597                85.3089                 7.9256

                    34                     35                     36
                    A"                     A"                     A"
 Frequencies --  3059.3140              3072.1151              3117.2886
 Red. masses --     1.1042                 1.1048                 1.1013
 Frc consts  --     6.0891                 6.1433                 6.3052
 IR Inten    --    50.2251                32.9338                13.5161

                    37                     38                     39
                    A'                     A'                     A'
 Frequencies --  3176.2571              3186.6982              3191.8770
 Red. masses --     1.0993                 1.0931                 1.0953
 Frc consts  --     6.5342                 6.5405                 6.5744
 IR Inten    --     8.9500                10.8320                 2.3966

 - Thermochemistry -
 -------------------
 Temperature   298.150 Kelvin.  Pressure   1.00000 Atm.
 Atom     1 has atomic number  6 and mass  12.00000

 Molecular mass:    87.06841 amu.
 Principal axes and moments of inertia in atomic units:
                           1         2         3
     Eigenvalues --   368.70384 534.29406 868.95832
           X           -0.01932   0.99981   0.00000
           Y            0.99981   0.01932   0.00000
           Z            0.00000   0.00000   1.00000
 This molecule is an asymmetric top.
 Rotational symmetry number  1.
 Rotational temperatures (Kelvin)      0.23491     0.16211     0.09968
 Rotational constants (GHZ):           4.89483     3.37781     2.07690
 Zero-point vibrational energy     343945.1 (Joules/Mol)
                                   82.20485 (Kcal/Mol)
 Warning -- explicit consideration of  10 degrees of freedom as
           vibrations may cause significant error
 Vibrational temperatures:     78.82   155.18   219.23   273.32   352.93
          (Kelvin)            465.82   578.88   671.53   848.28   851.68
                             1058.47  1403.46  1486.77  1524.54  1567.57
                             1640.00  1708.98  1738.17  1861.89  2028.86
                             2076.24  2093.56  2143.75  2167.19  2176.07
                             2197.28  2206.04  2206.36  2254.80  2542.03
                             4344.48  4359.22  4398.61  4401.66  4420.08
                             4485.08  4569.92  4584.94  4592.39

 Zero-point correction=                           0.131002 (Hartree/Particle)
 Thermal correction to Energy=                    0.138712
 Thermal correction to Enthalpy=                  0.139656
 Thermal correction to Gibbs Free Energy=         0.099115
 Sum of electronic and zero-point Energies=           -287.699204
 Sum of electronic and thermal Energies=              -287.691494
 Sum of electronic and thermal Enthalpies=            -287.690549
 Sum of electronic and thermal Free Energies=         -287.731091

                     E (Thermal)             CV                S
                      KCal/Mol        Cal/Mol-Kelvin    Cal/Mol-Kelvin
 Total                   87.043             25.644             85.327
 Electronic               0.000              0.000              0.000
 Translational            0.889              2.981             39.305
 Rotational               0.889              2.981             26.640
 Vibrational             85.266             19.683             19.382
 Vibration     1          0.596              1.976              4.637
 Vibration     2          0.606              1.943              3.307
 Vibration     3          0.619              1.900              2.642
 Vibration     4          0.633              1.854              2.228
 Vibration     5          0.660              1.771              1.764
 Vibration     6          0.708              1.628              1.291
 Vibration     7          0.768              1.465              0.954
 Vibration     8          0.824              1.324              0.747
 Vibration     9          0.947              1.054              0.468
 Vibration    10          0.949              1.049              0.464

 Optimization completed.
    -- Stationary point found.
 Normal termination of Gaussian 09 at Fri Feb 16 20:45:51 2018.
