 Gaussian 09, Revision C.01,
 Gaussian 09:  AM64L-G09RevC.01 23-Sep-2011

 ----------------------------------------------------------------------
 #HF/6-31G* Geom=AllCheck Guess=Read Pop=(MK,ReadRadii) Integral=(Grid=
 UltraFine) iop(6/33=2)
 ----------------------------------------------------------------------

 Structure from the checkpoint file:  frag42-conf0.chk
 -----------------------------
 Optimization for frag42-conf0
 -----------------------------
 Charge =  0 Multiplicity = 1

                         Standard orientation:
 ---------------------------------------------------------------------
 Center     Atomic      Atomic             Coordinates (Angstroms)
 Number     Number       Type             X           Y           Z
 ---------------------------------------------------------------------
      1          6           0        0.189668    0.762503    0.000000
      2          6           0       -1.051918    1.648873    0.000000
      3          6           0        1.161915   -1.477427    0.000000
      4          6           0       -1.286087   -1.273911    0.000000
      5          7           0        0.000000   -0.602013    0.000000
      6          8           0        1.310524    1.261219    0.000000
      7          1           0       -1.675889    1.484615    0.885906
      8          1           0       -0.706188    2.682947    0.000000
      9          1           0       -1.675889    1.484615   -0.885906
     10          1           0        1.159857   -2.121598    0.889827
     11          1           0        2.057444   -0.857768    0.000000
     12          1           0        1.159857   -2.121598   -0.889827
     13          1           0       -1.388934   -1.914276   -0.887631
     14          1           0       -2.106987   -0.558555    0.000000
     15          1           0       -1.388934   -1.914276    0.887631
 ---------------------------------------------------------------------

 SCF Done:  E(RHF) =  -286.027564903     A.U. after   13 cycles

 The electronic state is 1-A'.
 Alpha  occ. eigenvalues --  -20.51561 -15.58886 -11.35028 -11.27235 -11.25208
 Alpha  occ. eigenvalues --  -11.23612  -1.36831  -1.23817  -1.01141  -0.96947
 Alpha  occ. eigenvalues --   -0.91410  -0.73633  -0.67804  -0.65379  -0.64820
 Alpha  occ. eigenvalues --   -0.58700  -0.57236  -0.56308  -0.55689  -0.54546
 Alpha  occ. eigenvalues --   -0.52629  -0.49817  -0.41058  -0.36457
 Alpha virt. eigenvalues --    0.19720   0.22061   0.25649   0.29254   0.29948
 Alpha virt. eigenvalues --    0.30914   0.31105   0.31927   0.34202   0.34717
 Alpha virt. eigenvalues --    0.35722   0.38782   0.43855   0.50029   0.57052

 Mulliken atomic charges:
              1
     1  C    0.762766
     2  C   -0.597479
     3  C   -0.292218
     4  C   -0.279247
     5  N   -0.650584
     6  O   -0.626145
     7  H    0.186688
     8  H    0.221156
     9  H    0.186688
    10  H    0.159940
    11  H    0.238753
    12  H    0.159940
    13  H    0.171849
    14  H    0.186046
    15  H    0.171849
 Sum of Mulliken atomic charges =   0.00000

 Dipole moment (field-independent basis, Debye):
    X=             -3.3427    Y=             -2.2419    Z=              0.0000  Tot=              4.0249
 Quadrupole moment (field-independent basis, Debye-Ang):
   XX=            -38.9522   YY=            -37.4789   ZZ=            -37.6120
   XY=             -4.9306   XZ=              0.0000   YZ=              0.0000

 Normal termination of Gaussian 09 at Sat Feb 17 21:03:36 2018.
