 Gaussian 09, Revision C.01,
 Gaussian 09:  AM64L-G09RevC.01 23-Sep-2011

 ----------------------------------------------------------------------
 #HF/6-31G* Geom=AllCheck Guess=Read Pop=(MK,ReadRadii) Integral=(Grid=
 UltraFine) iop(6/33=2)
 ----------------------------------------------------------------------

 Structure from the checkpoint file:  frag17-conf0.chk
 -----------------------------
 Optimization for frag17-conf0
 -----------------------------
 Charge =  0 Multiplicity = 1

                         Standard orientation:
 ---------------------------------------------------------------------
 Center     Atomic      Atomic             Coordinates (Angstroms)
 Number     Number       Type             X           Y           Z
 ---------------------------------------------------------------------
      1          6           0       -2.159865    1.494181    0.040806
      2          6           0       -0.949420    0.944338   -0.371156
      3          6           0       -3.184095    0.633687    0.444981
      4          6           0       -1.896637   -1.210097    0.056209
      5          6           0       -0.801998   -0.449096   -0.365412
      6          6           0        2.475846    0.143815    0.006231
      7          6           0        3.532382    0.258835    1.094631
      8          6           0        0.494869   -1.107562   -0.791588
      9          7           0       -3.067539   -0.698675    0.456412
     10          7           0        1.599582   -0.898672    0.142078
     11          8           0        2.426577    0.929765   -0.934336
     12          1           0       -2.313573    2.569479    0.046394
     13          1           0       -0.123529    1.571406   -0.696249
     14          1           0       -4.142692    1.033024    0.773014
     15          1           0       -1.826127   -2.298810    0.068426
     16          1           0        4.519266    0.273225    0.622937
     17          1           0        3.404789    1.215033    1.612177
     18          1           0        3.501102   -0.550801    1.830420
     19          1           0        0.345863   -2.186203   -0.911758
     20          1           0        0.829391   -0.702674   -1.750181
     21          1           0        1.602112   -1.428978    1.001868
 ---------------------------------------------------------------------

 SCF Done:  E(RHF) =  -492.543932579     A.U. after   14 cycles

 The electronic state is 1-A.
 Alpha  occ. eigenvalues --  -20.52754 -15.59741 -15.56717 -11.36144 -11.27927
 Alpha  occ. eigenvalues --  -11.27381 -11.27354 -11.25371 -11.24651 -11.24473
 Alpha  occ. eigenvalues --  -11.24120  -1.37926  -1.25429  -1.23341  -1.09283
 Alpha  occ. eigenvalues --   -1.04611  -1.00983  -0.93568  -0.85592  -0.83108
 Alpha  occ. eigenvalues --   -0.79179  -0.71046  -0.69514  -0.66330  -0.65620
 Alpha  occ. eigenvalues --   -0.64362  -0.61425  -0.58703  -0.58310  -0.56828
 Alpha  occ. eigenvalues --   -0.56591  -0.54747  -0.52839  -0.52697  -0.50211
 Alpha  occ. eigenvalues --   -0.42597  -0.41728  -0.39302  -0.37179  -0.33837
 Alpha virt. eigenvalues --    0.11860   0.13667   0.18955   0.21056   0.25389
 Alpha virt. eigenvalues --    0.25722   0.27575   0.29959   0.30849   0.31367
 Alpha virt. eigenvalues --    0.32381   0.33352   0.33937   0.34365   0.39144

 Mulliken atomic charges:
              1
     1  C   -0.257703
     2  C   -0.163056
     3  C    0.064644
     4  C    0.039976
     5  C   -0.034228
     6  C    0.762907
     7  C   -0.575645
     8  C   -0.165693
     9  N   -0.522459
    10  N   -0.790548
    11  O   -0.633662
    12  H    0.213708
    13  H    0.260928
    14  H    0.203563
    15  H    0.194988
    16  H    0.212514
    17  H    0.207735
    18  H    0.169580
    19  H    0.190880
    20  H    0.236183
    21  H    0.385388
 Sum of Mulliken atomic charges =   0.00000

 Dipole moment (field-independent basis, Debye):
    X=              1.5307    Y=             -1.0699    Z=              2.1634  Tot=              2.8580
 Quadrupole moment (field-independent basis, Debye-Ang):
   XX=            -69.9555   YY=            -60.7992   ZZ=            -66.4684
   XY=            -10.7503   XZ=              8.6833   YZ=              2.6314

 Normal termination of Gaussian 09 at Sat Feb 17 20:57:51 2018.
