 Gaussian 09, Revision C.01,
 Gaussian 09:  AM64L-G09RevC.01 23-Sep-2011

 ---------------------------------------------------------
 #B3LYP/6-31G* Integral=(Grid=UltraFine) freq Opt pop=none
 ---------------------------------------------------------

 99/9=1/99;
 -----------------------------
 Optimization for frag17-conf0
 -----------------------------
 Charge =  0 Multiplicity = 1

 SCF Done:  E(RB3LYP) =  -495.608139851     A.U. after   15 cycles
 SCF Done:  E(RB3LYP) =  -495.609976518     A.U. after   13 cycles
 SCF Done:  E(RB3LYP) =  -495.610149619     A.U. after   12 cycles
 SCF Done:  E(RB3LYP) =  -495.610174724     A.U. after   12 cycles
 SCF Done:  E(RB3LYP) =  -495.610253882     A.U. after   12 cycles
 SCF Done:  E(RB3LYP) =  -495.610402930     A.U. after   14 cycles
 SCF Done:  E(RB3LYP) =  -495.610681952     A.U. after   16 cycles
 SCF Done:  E(RB3LYP) =  -495.610903643     A.U. after   15 cycles
 SCF Done:  E(RB3LYP) =  -495.610943908     A.U. after   15 cycles
 SCF Done:  E(RB3LYP) =  -495.611169663     A.U. after   13 cycles
 SCF Done:  E(RB3LYP) =  -495.612968993     A.U. after   12 cycles
 SCF Done:  E(RB3LYP) =  -495.613024813     A.U. after   12 cycles
 SCF Done:  E(RB3LYP) =  -495.613029358     A.U. after   11 cycles
 SCF Done:  E(RB3LYP) =  -495.613030272     A.U. after    9 cycles
 SCF Done:  E(RB3LYP) =  -495.613030484     A.U. after    8 cycles
 SCF Done:  E(RB3LYP) =  -495.613030610     A.U. after    7 cycles
 SCF Done:  E(RB3LYP) =  -495.613031007     A.U. after    9 cycles
 SCF Done:  E(RB3LYP) =  -495.613031511     A.U. after    9 cycles
 SCF Done:  E(RB3LYP) =  -495.613031628     A.U. after    8 cycles
 Optimization completed.
    -- Stationary point found.
 Normal termination of Gaussian 09 at Fri Feb 16 18:55:14 2018.

 --------------------------------------------------------------------
 #N Geom=AllCheck Guess=TCheck SCRF=Check GenChk RB3LYP/6-31G(d) Freq
 --------------------------------------------------------------------

 Structure from the checkpoint file:  frag17-conf0.chk
 -----------------------------
 Optimization for frag17-conf0
 -----------------------------
 Charge =  0 Multiplicity = 1

                         Standard orientation:
 ---------------------------------------------------------------------
 Center     Atomic      Atomic             Coordinates (Angstroms)
 Number     Number       Type             X           Y           Z
 ---------------------------------------------------------------------
      1          6           0       -2.159865    1.494181    0.040806
      2          6           0       -0.949420    0.944338   -0.371156
      3          6           0       -3.184095    0.633687    0.444981
      4          6           0       -1.896637   -1.210097    0.056209
      5          6           0       -0.801998   -0.449096   -0.365412
      6          6           0        2.475846    0.143815    0.006231
      7          6           0        3.532382    0.258835    1.094631
      8          6           0        0.494869   -1.107562   -0.791588
      9          7           0       -3.067539   -0.698675    0.456412
     10          7           0        1.599582   -0.898672    0.142078
     11          8           0        2.426577    0.929765   -0.934336
     12          1           0       -2.313573    2.569479    0.046394
     13          1           0       -0.123529    1.571406   -0.696249
     14          1           0       -4.142692    1.033024    0.773014
     15          1           0       -1.826127   -2.298810    0.068426
     16          1           0        4.519266    0.273225    0.622937
     17          1           0        3.404789    1.215033    1.612177
     18          1           0        3.501102   -0.550801    1.830420
     19          1           0        0.345863   -2.186203   -0.911758
     20          1           0        0.829391   -0.702674   -1.750181
     21          1           0        1.602112   -1.428978    1.001868
 ---------------------------------------------------------------------

 SCF Done:  E(RB3LYP) =  -495.613031628     A.U. after    1 cycles

 Isotropic polarizability for W=    0.000000       92.74 Bohr**3.
 End of Minotr Frequency-dependent properties file   721 does not exist.

                     1                      2                      3
                     A                      A                      A
 Frequencies --    33.9206                48.7345                63.0588
 Red. masses --     3.3274                 1.4707                 4.6909
 Frc consts  --     0.0023                 0.0021                 0.0110
 IR Inten    --     3.1910                 3.9947                14.6184

                     4                      5                      6
                     A                      A                      A
 Frequencies --    72.9696               178.4133               224.5634
 Red. masses --     2.3930                 4.3665                 5.6686
 Frc consts  --     0.0075                 0.0819                 0.1684
 IR Inten    --     0.2821                 2.8841                 5.7288

                     7                      8                      9
                     A                      A                      A
 Frequencies --   300.3645               340.2461               411.3139
 Red. masses --     4.0341                 2.0429                 3.0550
 Frc consts  --     0.2144                 0.1393                 0.3045
 IR Inten    --     0.3834                 3.0394                 0.8025

                    10                     11                     12
                     A                      A                      A
 Frequencies --   437.8494               442.6849               504.9796
 Red. masses --     2.7936                 1.2903                 4.2134
 Frc consts  --     0.3155                 0.1490                 0.6330
 IR Inten    --    15.8738                97.8875                 7.8196

                    13                     14                     15
                     A                      A                      A
 Frequencies --   604.9727               617.8660               644.2723
 Red. masses --     4.3456                 3.0975                 5.0182
 Frc consts  --     0.9371                 0.6967                 1.2273
 IR Inten    --    12.6592                 0.5839                 2.7434

                    16                     17                     18
                     A                      A                      A
 Frequencies --   666.2207               737.2294               814.2979
 Red. masses --     3.9227                 2.0762                 2.4819
 Frc consts  --     1.0258                 0.6648                 0.9696
 IR Inten    --     3.2471                23.6502                12.4849

                    19                     20                     21
                     A                      A                      A
 Frequencies --   850.5254               854.5948               950.1755
 Red. masses --     2.5477                 2.5423                 1.3507
 Frc consts  --     1.0859                 1.0940                 0.7185
 IR Inten    --     8.9491                 2.8959                 0.3664

                    22                     23                     24
                     A                      A                      A
 Frequencies --   979.8234              1000.1853              1014.8942
 Red. masses --     1.4418                 1.6345                 1.3801
 Frc consts  --     0.8156                 0.9634                 0.8375
 IR Inten    --     1.1993                 2.8559                 2.1520

                    25                     26                     27
                     A                      A                      A
 Frequencies --  1030.6762              1048.1396              1068.2574
 Red. masses --     2.8781                 3.7685                 1.7220
 Frc consts  --     1.8014                 2.4392                 1.1578
 IR Inten    --     0.4012                19.6370                 8.1436

                    28                     29                     30
                     A                      A                      A
 Frequencies --  1070.6600              1101.1030              1153.4828
 Red. masses --     2.5691                 3.0919                 1.4540
 Frc consts  --     1.7351                 2.2087                 1.1398
 IR Inten    --     2.6349                11.5678                 6.1913

                    31                     32                     33
                     A                      A                      A
 Frequencies --  1226.5449              1252.6217              1268.2486
 Red. masses --     1.8786                 1.8770                 1.5377
 Frc consts  --     1.6651                 1.7352                 1.4572
 IR Inten    --     7.0963                 1.1755                29.3197

                    34                     35                     36
                     A                      A                      A
 Frequencies --  1291.3930              1325.6835              1386.0863
 Red. masses --     2.3795                 2.4421                 1.2215
 Frc consts  --     2.3380                 2.5286                 1.3827
 IR Inten    --   100.0395                26.4293                 8.3563

                    37                     38                     39
                     A                      A                      A
 Frequencies --  1403.8947              1426.7210              1475.4060
 Red. masses --     1.2858                 1.2587                 2.2859
 Frc consts  --     1.4932                 1.5095                 2.9317
 IR Inten    --    12.3867                22.0076                26.5837

                    40                     41                     42
                     A                      A                      A
 Frequencies --  1497.6714              1500.9816              1515.3933
 Red. masses --     1.1096                 1.0495                 1.0695
 Frc consts  --     1.4663                 1.3930                 1.4471
 IR Inten    --    16.0607                 4.1431                17.9588

                    43                     44                     45
                     A                      A                      A
 Frequencies --  1527.7318              1556.0508              1629.8636
 Red. masses --     2.1489                 1.8917                 5.1565
 Frc consts  --     2.9550                 2.6986                 8.0707
 IR Inten    --     8.0231               207.3141                11.5899

                    46                     47                     48
                     A                      A                      A
 Frequencies --  1650.8473              1775.5276              3064.9326
 Red. masses --     5.4616                 8.9560                 1.0356
 Frc consts  --     8.7697                16.6348                 5.7319
 IR Inten    --     4.3957               199.3340                 8.0467

                    49                     50                     51
                     A                      A                      A
 Frequencies --  3072.3350              3133.2065              3138.1319
 Red. masses --     1.0642                 1.1006                 1.1028
 Frc consts  --     5.9185                 6.3658                 6.3985
 IR Inten    --    28.1178                 1.0035                13.3847

                    52                     53                     54
                     A                      A                      A
 Frequencies --  3145.1217              3147.4075              3171.1501
 Red. masses --     1.1022                 1.0896                 1.0892
 Frc consts  --     6.4238                 6.3594                 6.4532
 IR Inten    --    10.5659                36.6625                20.8683

                    55                     56                     57
                     A                      A                      A
 Frequencies --  3200.4710              3214.2327              3624.7650
 Red. masses --     1.0903                 1.0966                 1.0778
 Frc consts  --     6.5797                 6.6750                 8.3433
 IR Inten    --    10.7569                10.2049                16.7746

 - Thermochemistry -
 -------------------
 Temperature   298.150 Kelvin.  Pressure   1.00000 Atm.
 Atom     1 has atomic number  6 and mass  12.00000

 Molecular mass:   150.07931 amu.
 Principal axes and moments of inertia in atomic units:
                           1         2         3
     Eigenvalues --   684.675803065.150243343.56532
           X            0.99984  -0.01007   0.01478
           Y            0.00960   0.99946   0.03145
           Z           -0.01509  -0.03130   0.99940
 This molecule is an asymmetric top.
 Rotational symmetry number  1.
 Warning -- assumption of classical behavior for rotation
           may cause significant error
 Rotational temperatures (Kelvin)      0.12650     0.02826     0.02590
 Rotational constants (GHZ):           2.63591     0.58879     0.53977
 Zero-point vibrational energy     453916.4 (Joules/Mol)
                                  108.48862 (Kcal/Mol)
 Warning -- explicit consideration of  14 degrees of freedom as
           vibrations may cause significant error
 Vibrational temperatures:     48.80    70.12    90.73   104.99   256.70
          (Kelvin)            323.10   432.16   489.54   591.79   629.97
                              636.92   726.55   870.42   888.97   926.96
                              958.54  1060.71  1171.59  1223.71  1229.57
                             1367.09  1409.75  1439.04  1460.20  1482.91
                             1508.04  1536.98  1540.44  1584.24  1659.60
                             1764.72  1802.24  1824.72  1858.02  1907.36
                             1994.27  2019.89  2052.73  2122.78  2154.81
                             2159.57  2180.31  2198.06  2238.81  2345.01
                             2375.20  2554.58  4409.75  4420.40  4507.98
                             4515.07  4525.12  4528.41  4562.57  4604.76
                             4624.56  5215.22

 Zero-point correction=                           0.172888 (Hartree/Particle)
 Thermal correction to Energy=                    0.183310
 Thermal correction to Enthalpy=                  0.184255
 Thermal correction to Gibbs Free Energy=         0.134963
 Sum of electronic and zero-point Energies=           -495.440144
 Sum of electronic and thermal Energies=              -495.429721
 Sum of electronic and thermal Enthalpies=            -495.428777
 Sum of electronic and thermal Free Energies=         -495.478069

                     E (Thermal)             CV                S
                      KCal/Mol        Cal/Mol-Kelvin    Cal/Mol-Kelvin
 Total                  115.029             37.678            103.743
 Electronic               0.000              0.000              0.000
 Translational            0.889              2.981             40.928
 Rotational               0.889              2.981             30.329
 Vibrational            113.252             31.716             32.486
 Vibration     1          0.594              1.983              5.586
 Vibration     2          0.595              1.978              4.868
 Vibration     3          0.597              1.972              4.359
 Vibration     4          0.599              1.967              4.072
 Vibration     5          0.629              1.869              2.345
 Vibration     6          0.649              1.804              1.922
 Vibration     7          0.693              1.673              1.415
 Vibration     8          0.720              1.595              1.211
 Vibration     9          0.775              1.446              0.922
 Vibration    10          0.798              1.388              0.833
 Vibration    11          0.802              1.377              0.818
 Vibration    12          0.860              1.239              0.646
 Vibration    13          0.964              1.021              0.441
 Vibration    14          0.978              0.994              0.420

 Optimization completed.
    -- Stationary point found.
 Normal termination of Gaussian 09 at Fri Feb 16 19:06:26 2018.
