 Gaussian 09, Revision C.01,
 Gaussian 09:  AM64L-G09RevC.01 23-Sep-2011

 ----------------------------------------------------------------------
 #HF/6-31G* Geom=AllCheck Guess=Read Pop=(MK,ReadRadii) Integral=(Grid=
 UltraFine) iop(6/33=2)
 ----------------------------------------------------------------------

 Structure from the checkpoint file:  frag12-conf0.chk
 -----------------------------
 Optimization for frag12-conf0
 -----------------------------
 Charge =  1 Multiplicity = 1

                         Standard orientation:
 ---------------------------------------------------------------------
 Center     Atomic      Atomic             Coordinates (Angstroms)
 Number     Number       Type             X           Y           Z
 ---------------------------------------------------------------------
      1          6           0        1.871696   -0.355582    0.126439
      2          6           0       -3.785810    0.968049   -0.520881
      3          6           0       -4.043366   -0.565609   -0.413828
      4          6           0       -2.429876    1.214633    0.174519
      5          6           0       -2.723002   -1.192631    0.111408
      6          6           0       -1.676900   -0.089285   -0.107001
      7          6           0        4.172448   -0.730374   -0.539399
      8          6           0        3.406805    1.585612   -0.096235
      9          6           0        0.717642    0.600940    0.538204
     10          7           0        3.073838    0.163060   -0.150674
     11          7           0       -0.462796   -0.297394    0.773605
     12          8           0        1.590546   -1.561999    0.079896
     13          1           0       -3.722948    1.272067   -1.570850
     14          1           0       -4.581539    1.562603   -0.065968
     15          1           0       -4.868742   -0.793099    0.265145
     16          1           0       -4.311892   -0.982947   -1.387744
     17          1           0       -1.918159    2.111490   -0.188757
     18          1           0       -2.571330    1.325731    1.259326
     19          1           0       -2.805643   -1.407120    1.186063
     20          1           0       -2.457186   -2.129155   -0.387545
     21          1           0       -1.291392   -0.111791   -1.132128
     22          1           0        4.527548   -0.461350   -1.539525
     23          1           0        3.814329   -1.757902   -0.540113
     24          1           0        4.998173   -0.626586    0.171980
     25          1           0        2.547802    2.192868    0.189490
     26          1           0        3.756218    1.922438   -1.078141
     27          1           0        4.206533    1.752789    0.633370
     28          1           0        0.940947    1.155778    1.451332
     29          1           0        0.469063    1.311370   -0.252030
     30          1           0       -0.754590   -0.266747    1.755101
     31          1           0       -0.036662   -1.248619    0.591943
 ---------------------------------------------------------------------

 SCF Done:  E(RHF) =  -535.439516527     A.U. after   13 cycles

 The electronic state is 1-A.
 Alpha  occ. eigenvalues --  -20.68948 -15.84154 -15.74904 -11.52212 -11.46932
 Alpha  occ. eigenvalues --  -11.44262 -11.40560 -11.37985 -11.37591 -11.37167
 Alpha  occ. eigenvalues --  -11.35210 -11.34965  -1.54729  -1.46426  -1.39792
 Alpha  occ. eigenvalues --   -1.26785  -1.17203  -1.11338  -1.10800  -1.10106
 Alpha  occ. eigenvalues --   -1.06376  -0.96955  -0.94440  -0.91090  -0.88852
 Alpha  occ. eigenvalues --   -0.85203  -0.83166  -0.82317  -0.79786  -0.79224
 Alpha  occ. eigenvalues --   -0.77171  -0.75553  -0.72408  -0.72087  -0.71542
 Alpha  occ. eigenvalues --   -0.69208  -0.68998  -0.66933  -0.66561  -0.65752
 Alpha  occ. eigenvalues --   -0.63920  -0.62616  -0.61191  -0.60676  -0.58956
 Alpha  occ. eigenvalues --   -0.58733  -0.51947
 Alpha virt. eigenvalues --    0.02236   0.03815   0.07104   0.08672   0.09275
 Alpha virt. eigenvalues --    0.12147   0.13603   0.13892   0.15242   0.15902
 Alpha virt. eigenvalues --    0.17056   0.17480   0.18005   0.18659   0.18916

 Mulliken atomic charges:
              1
     1  C    0.809913
     2  C   -0.343992
     3  C   -0.341709
     4  C   -0.339742
     5  C   -0.350475
     6  C   -0.030623
     7  C   -0.315576
     8  C   -0.308419
     9  C   -0.257319
    10  N   -0.656833
    11  N   -0.816331
    12  O   -0.661192
    13  H    0.197869
    14  H    0.215333
    15  H    0.209992
    16  H    0.207905
    17  H    0.199354
    18  H    0.179427
    19  H    0.181834
    20  H    0.221589
    21  H    0.235622
    22  H    0.202784
    23  H    0.253258
    24  H    0.203379
    25  H    0.184080
    26  H    0.218437
    27  H    0.218961
    28  H    0.264027
    29  H    0.263128
    30  H    0.442924
    31  H    0.512395
 Sum of Mulliken atomic charges =   1.00000

 Dipole moment (field-independent basis, Debye):
    X=              0.3820    Y=              3.0881    Z=              1.8188  Tot=              3.6041
 Quadrupole moment (field-independent basis, Debye-Ang):
   XX=            -35.1753   YY=            -70.7712   ZZ=            -66.6474
   XY=              7.2730   XZ=             -2.1508   YZ=              0.0014

 Normal termination of Gaussian 09 at Sat Feb 17 20:56:55 2018.
