 Gaussian 09, Revision C.01,
 Gaussian 09:  AM64L-G09RevC.01 23-Sep-2011

 ---------------------------------------------------------
 #B3LYP/6-31G* Integral=(Grid=UltraFine) freq Opt pop=none
 ---------------------------------------------------------

 99/9=1/99;
 -----------------------------
 Optimization for frag12-conf0
 -----------------------------
 Charge =  1 Multiplicity = 1

 SCF Done:  E(RB3LYP) =  -538.908195038     A.U. after   14 cycles
 SCF Done:  E(RB3LYP) =  -538.917503373     A.U. after   12 cycles
 SCF Done:  E(RB3LYP) =  -538.919307248     A.U. after   14 cycles
 SCF Done:  E(RB3LYP) =  -538.920380405     A.U. after   12 cycles
 SCF Done:  E(RB3LYP) =  -538.920477906     A.U. after   12 cycles
 SCF Done:  E(RB3LYP) =  -538.921229855     A.U. after   11 cycles
 SCF Done:  E(RB3LYP) =  -538.921422563     A.U. after   11 cycles
 SCF Done:  E(RB3LYP) =  -538.921481793     A.U. after   11 cycles
 SCF Done:  E(RB3LYP) =  -538.921557859     A.U. after   10 cycles
 SCF Done:  E(RB3LYP) =  -538.921592009     A.U. after   10 cycles
 SCF Done:  E(RB3LYP) =  -538.921639824     A.U. after    9 cycles
 SCF Done:  E(RB3LYP) =  -538.921640253     A.U. after    9 cycles
 SCF Done:  E(RB3LYP) =  -538.921640975     A.U. after    8 cycles
 SCF Done:  E(RB3LYP) =  -538.921640945     A.U. after    9 cycles
 SCF Done:  E(RB3LYP) =  -538.921641752     A.U. after    8 cycles
 SCF Done:  E(RB3LYP) =  -538.921641882     A.U. after    9 cycles
 SCF Done:  E(RB3LYP) =  -538.921641937     A.U. after    9 cycles
 SCF Done:  E(RB3LYP) =  -538.921642046     A.U. after    8 cycles
 SCF Done:  E(RB3LYP) =  -538.921642047     A.U. after    7 cycles
 Optimization completed.
    -- Stationary point found.
 Normal termination of Gaussian 09 at Fri Feb 16 18:57:18 2018.

 --------------------------------------------------------------------
 #N Geom=AllCheck Guess=TCheck SCRF=Check GenChk RB3LYP/6-31G(d) Freq
 --------------------------------------------------------------------

 Structure from the checkpoint file:  frag12-conf0.chk
 -----------------------------
 Optimization for frag12-conf0
 -----------------------------
 Charge =  1 Multiplicity = 1

                         Standard orientation:
 ---------------------------------------------------------------------
 Center     Atomic      Atomic             Coordinates (Angstroms)
 Number     Number       Type             X           Y           Z
 ---------------------------------------------------------------------
      1          6           0        1.871696   -0.355582    0.126439
      2          6           0       -3.785810    0.968049   -0.520881
      3          6           0       -4.043366   -0.565609   -0.413828
      4          6           0       -2.429876    1.214633    0.174519
      5          6           0       -2.723002   -1.192631    0.111408
      6          6           0       -1.676900   -0.089285   -0.107001
      7          6           0        4.172448   -0.730374   -0.539399
      8          6           0        3.406805    1.585612   -0.096235
      9          6           0        0.717642    0.600940    0.538204
     10          7           0        3.073838    0.163060   -0.150674
     11          7           0       -0.462796   -0.297394    0.773605
     12          8           0        1.590546   -1.561999    0.079896
     13          1           0       -3.722948    1.272067   -1.570850
     14          1           0       -4.581539    1.562603   -0.065968
     15          1           0       -4.868742   -0.793099    0.265145
     16          1           0       -4.311892   -0.982947   -1.387744
     17          1           0       -1.918159    2.111490   -0.188757
     18          1           0       -2.571330    1.325731    1.259326
     19          1           0       -2.805643   -1.407120    1.186063
     20          1           0       -2.457186   -2.129155   -0.387545
     21          1           0       -1.291392   -0.111791   -1.132128
     22          1           0        4.527548   -0.461350   -1.539525
     23          1           0        3.814329   -1.757902   -0.540113
     24          1           0        4.998173   -0.626586    0.171980
     25          1           0        2.547802    2.192868    0.189490
     26          1           0        3.756218    1.922438   -1.078141
     27          1           0        4.206533    1.752789    0.633370
     28          1           0        0.940947    1.155778    1.451332
     29          1           0        0.469063    1.311370   -0.252030
     30          1           0       -0.754590   -0.266747    1.755101
     31          1           0       -0.036662   -1.248619    0.591943
 ---------------------------------------------------------------------

 SCF Done:  E(RB3LYP) =  -538.921642047     A.U. after    1 cycles

 Isotropic polarizability for W=    0.000000      108.57 Bohr**3.
 End of Minotr Frequency-dependent properties file   721 does not exist.

                     1                      2                      3
                     A                      A                      A
 Frequencies --    17.4050                24.4911                58.2318
 Red. masses --     3.2508                 1.7486                 2.4373
 Frc consts  --     0.0006                 0.0006                 0.0049
 IR Inten    --     1.4631                 0.2517                 1.3150

                     4                      5                      6
                     A                      A                      A
 Frequencies --    63.6570                91.1439               101.4863
 Red. masses --     2.7537                 1.2432                 1.3063
 Frc consts  --     0.0066                 0.0061                 0.0079
 IR Inten    --     3.4419                 0.3001                 1.2805

                     7                      8                      9
                     A                      A                      A
 Frequencies --   129.4698               154.2313               222.2039
 Red. masses --     2.4987                 2.3481                 3.2250
 Frc consts  --     0.0247                 0.0329                 0.0938
 IR Inten    --     3.8464                 0.9153                 2.8103

                    10                     11                     12
                     A                      A                      A
 Frequencies --   228.3117               266.4281               299.6125
 Red. masses --     2.9826                 2.4602                 2.6781
 Frc consts  --     0.0916                 0.1029                 0.1416
 IR Inten    --     2.2333                 4.8711                10.3388

                    13                     14                     15
                     A                      A                      A
 Frequencies --   383.6397               412.1078               448.8294
 Red. masses --     2.9578                 2.6312                 2.2804
 Frc consts  --     0.2565                 0.2633                 0.2707
 IR Inten    --    21.5292                 1.8151                57.9257

                    16                     17                     18
                     A                      A                      A
 Frequencies --   527.9636               555.0097               576.7225
 Red. masses --     2.5201                 3.0364                 3.3564
 Frc consts  --     0.4139                 0.5511                 0.6577
 IR Inten    --     7.6124                27.5038                22.1280

                    19                     20                     21
                     A                      A                      A
 Frequencies --   620.5916               630.5833               770.5307
 Red. masses --     4.3740                 3.0105                 2.0383
 Frc consts  --     0.9925                 0.7053                 0.7130
 IR Inten    --    11.9190                 0.4793                11.7930

                    22                     23                     24
                     A                      A                      A
 Frequencies --   785.8364               821.8820               874.5566
 Red. masses --     1.6322                 1.6620                 3.4488
 Frc consts  --     0.5939                 0.6614                 1.5541
 IR Inten    --    20.7888                 2.8458                 2.4085

                    25                     26                     27
                     A                      A                      A
 Frequencies --   896.1049               919.0700               953.7980
 Red. masses --     2.4154                 1.9575                 2.7571
 Frc consts  --     1.1428                 0.9742                 1.4778
 IR Inten    --     0.4164                 5.0100                 0.7293

                    28                     29                     30
                     A                      A                      A
 Frequencies --   969.6639               978.1283               997.5206
 Red. masses --     2.7882                 1.7733                 1.4896
 Frc consts  --     1.5446                 0.9996                 0.8733
 IR Inten    --     2.7522                 9.4588                 8.8643

                    31                     32                     33
                     A                      A                      A
 Frequencies --  1012.7485              1038.6713              1043.7433
 Red. masses --     1.8335                 2.0718                 2.9644
 Frc consts  --     1.1080                 1.3169                 1.9027
 IR Inten    --     2.4756                10.1405                13.4947

                    34                     35                     36
                     A                      A                      A
 Frequencies --  1066.0665              1085.6147              1131.2027
 Red. masses --     2.5194                 1.4384                 1.2230
 Frc consts  --     1.6870                 0.9988                 0.9221
 IR Inten    --    10.8920                 9.5815                 0.0938

                    37                     38                     39
                     A                      A                      A
 Frequencies --  1133.8816              1183.4587              1184.8103
 Red. masses --     2.7281                 1.3744                 1.8534
 Frc consts  --     2.0665                 1.1341                 1.5329
 IR Inten    --    13.2732                 4.4361                78.8798

                    40                     41                     42
                     A                      A                      A
 Frequencies --  1205.2825              1216.0720              1242.0098
 Red. masses --     1.2084                 1.4326                 1.2595
 Frc consts  --     1.0343                 1.2483                 1.1448
 IR Inten    --     2.2798                 2.1725                 6.6773

                    43                     44                     45
                     A                      A                      A
 Frequencies --  1273.1879              1279.2979              1284.4408
 Red. masses --     4.0466                 1.2053                 1.2614
 Frc consts  --     3.8648                 1.1622                 1.2261
 IR Inten    --    42.0158                10.1001                50.6620

                    46                     47                     48
                     A                      A                      A
 Frequencies --  1311.0382              1321.2714              1342.2119
 Red. masses --     1.1906                 1.3106                 1.2524
 Frc consts  --     1.2057                 1.3480                 1.3293
 IR Inten    --    69.7433                 3.3249                17.0667

                    49                     50                     51
                     A                      A                      A
 Frequencies --  1355.0760              1362.3692              1372.2548
 Red. masses --     1.2840                 1.2812                 1.4732
 Frc consts  --     1.3891                 1.4011                 1.6345
 IR Inten    --     0.3704                 2.1805                 3.3839

                    52                     53                     54
                     A                      A                      A
 Frequencies --  1389.4330              1443.0811              1451.3568
 Red. masses --     1.3484                 1.3665                 1.2491
 Frc consts  --     1.5337                 1.6766                 1.5503
 IR Inten    --    31.7399               330.8350                30.6961

                    55                     56                     57
                     A                      A                      A
 Frequencies --  1464.3899              1475.8777              1503.3904
 Red. masses --     1.1595                 1.9016                 1.2260
 Frc consts  --     1.4650                 2.4405                 1.6326
 IR Inten    --    15.9823                25.2514                13.8396

                    58                     59                     60
                     A                      A                      A
 Frequencies --  1506.9699              1513.2502              1516.3042
 Red. masses --     1.0378                 1.0870                 1.0817
 Frc consts  --     1.3886                 1.4665                 1.4653
 IR Inten    --     1.7724                 2.4614                20.9484

                    61                     62                     63
                     A                      A                      A
 Frequencies --  1525.9732              1527.2206              1527.5614
 Red. masses --     1.0899                 1.0445                 1.0831
 Frc consts  --     1.4954                 1.4353                 1.4891
 IR Inten    --     5.0976                15.7585                16.1847

                    64                     65                     66
                     A                      A                      A
 Frequencies --  1529.3037              1550.7226              1566.9928
 Red. masses --     1.1001                 1.1017                 1.4175
 Frc consts  --     1.5159                 1.5609                 2.0507
 IR Inten    --     9.5711                 1.3489                40.0088

                    67                     68                     69
                     A                      A                      A
 Frequencies --  1655.5425              1768.9315              2958.1564
 Red. masses --     1.1075                 5.2359                 1.0722
 Frc consts  --     1.7884                 9.6530                 5.5278
 IR Inten    --   110.6199               264.0084               472.7816

                    70                     71                     72
                     A                      A                      A
 Frequencies --  3035.3323              3041.6349              3065.1951
 Red. masses --     1.0691                 1.0707                 1.0364
 Frc consts  --     5.8034                 5.8361                 5.7371
 IR Inten    --     8.7350                25.2635                13.8031

                    73                     74                     75
                     A                      A                      A
 Frequencies --  3070.9514              3081.8777              3091.5523
 Red. masses --     1.0367                 1.0672                 1.0852
 Frc consts  --     5.7605                 5.9724                 6.1108
 IR Inten    --    22.1059                11.6674                 4.2340

                    76                     77                     78
                     A                      A                      A
 Frequencies --  3098.2878              3113.3223              3118.4166
 Red. masses --     1.0631                 1.0923                 1.0669
 Frc consts  --     6.0128                 6.2379                 6.1127
 IR Inten    --    19.7046                18.0037                 7.8870

                    79                     80                     81
                     A                      A                      A
 Frequencies --  3120.8088              3124.7327              3131.4666
 Red. masses --     1.0930                 1.1062                 1.1026
 Frc consts  --     6.2721                 6.3634                 6.3702
 IR Inten    --    11.1871                 9.0969                 1.6557

                    82                     83                     84
                     A                      A                      A
 Frequencies --  3132.5059              3147.0186              3174.7318
 Red. masses --     1.1065                 1.1054                 1.1094
 Frc consts  --     6.3970                 6.4501                 6.5878
 IR Inten    --     8.4899                21.9097                 0.0549

                    85                     86                     87
                     A                      A                      A
 Frequencies --  3179.9702              3210.3791              3464.1575
 Red. masses --     1.0994                 1.1006                 1.0767
 Frc consts  --     6.5504                 6.6831                 7.6124
 IR Inten    --    16.1770                 0.2717                43.1083

 - Thermochemistry -
 -------------------
 Temperature   298.150 Kelvin.  Pressure   1.00000 Atm.
 Atom     1 has atomic number  6 and mass  12.00000

 Molecular mass:   171.14974 amu.
 Principal axes and moments of inertia in atomic units:
                           1         2         3
     Eigenvalues --   758.747494926.233185392.21897
           X            0.99997   0.00694  -0.00157
           Y           -0.00693   0.99996   0.00547
           Z            0.00161  -0.00546   0.99998
 This molecule is an asymmetric top.
 Rotational symmetry number  1.
 Warning -- assumption of classical behavior for rotation
           may cause significant error
 Rotational temperatures (Kelvin)      0.11415     0.01758     0.01606
 Rotational constants (GHZ):           2.37858     0.36635     0.33469
 Zero-point vibrational energy     750661.0 (Joules/Mol)
                                  179.41229 (Kcal/Mol)
 Warning -- explicit consideration of  19 degrees of freedom as
           vibrations may cause significant error
 Vibrational temperatures:     25.04    35.24    83.78    91.59   131.14
          (Kelvin)            146.02   186.28   221.90   319.70   328.49
                              383.33   431.07   551.97   592.93   645.76
                              759.62   798.53   829.77   892.89   907.27
                             1108.62  1130.64  1182.50  1258.29  1289.29
                             1322.34  1372.30  1395.13  1407.31  1435.21
                             1457.12  1494.41  1501.71  1533.83  1561.96
                             1627.55  1631.40  1702.73  1704.68  1734.13
                             1749.65  1786.97  1831.83  1840.62  1848.02
                             1886.29  1901.01  1931.14  1949.65  1960.14
                             1974.37  1999.08  2076.27  2088.18  2106.93
                             2123.46  2163.04  2168.19  2177.23  2181.62
                             2195.53  2197.33  2197.82  2200.32  2231.14
                             2254.55  2381.95  2545.09  4256.12  4367.16
                             4376.23  4410.13  4418.41  4434.13  4448.05
                             4457.74  4479.37  4486.70  4490.14  4495.79
                             4505.48  4506.97  4527.85  4567.73  4575.26
                             4619.01  4984.14

 Zero-point correction=                           0.285912 (Hartree/Particle)
 Thermal correction to Energy=                    0.299657
 Thermal correction to Enthalpy=                  0.300601
 Thermal correction to Gibbs Free Energy=         0.242647
 Sum of electronic and zero-point Energies=           -538.635730
 Sum of electronic and thermal Energies=              -538.621985
 Sum of electronic and thermal Enthalpies=            -538.621041
 Sum of electronic and thermal Free Energies=         -538.678995

                     E (Thermal)             CV                S
                      KCal/Mol        Cal/Mol-Kelvin    Cal/Mol-Kelvin
 Total                  188.037             49.020            121.974
 Electronic               0.000              0.000              0.000
 Translational            0.889              2.981             41.320
 Rotational               0.889              2.981             31.378
 Vibrational            186.260             43.059             49.276
 Vibration     1          0.593              1.986              6.910
 Vibration     2          0.593              1.985              6.232
 Vibration     3          0.596              1.974              4.516
 Vibration     4          0.597              1.972              4.340
 Vibration     5          0.602              1.955              3.635
 Vibration     6          0.604              1.948              3.426
 Vibration     7          0.612              1.924              2.954
 Vibration     8          0.620              1.898              2.619
 Vibration     9          0.648              1.807              1.941
 Vibration    10          0.651              1.798              1.892
 Vibration    11          0.672              1.735              1.619
 Vibration    12          0.692              1.674              1.419
 Vibration    13          0.753              1.505              1.025
 Vibration    14          0.776              1.444              0.919
 Vibration    15          0.808              1.363              0.799
 Vibration    16          0.883              1.188              0.592
 Vibration    17          0.910              1.129              0.534
 Vibration    18          0.933              1.082              0.491
 Vibration    19          0.981              0.988              0.416

 Optimization completed.
    -- Stationary point found.
 Normal termination of Gaussian 09 at Fri Feb 16 19:20:41 2018.
