 Gaussian 09, Revision C.01,
 Gaussian 09:  AM64L-G09RevC.01 23-Sep-2011

 ---------------------------------------------------------
 #B3LYP/6-31G* Integral=(Grid=UltraFine) freq Opt pop=none
 ---------------------------------------------------------

 99/9=1/99;
 -----------------------------
 Optimization for frag44-conf0
 -----------------------------
 Charge =  0 Multiplicity = 1

 SCF Done:  E(RB3LYP) =  -287.838525393     A.U. after   14 cycles
 SCF Done:  E(RB3LYP) =  -287.839710792     A.U. after   12 cycles
 SCF Done:  E(RB3LYP) =  -287.839797240     A.U. after   11 cycles
 SCF Done:  E(RB3LYP) =  -287.839842412     A.U. after   10 cycles
 SCF Done:  E(RB3LYP) =  -287.839891471     A.U. after   11 cycles
 SCF Done:  E(RB3LYP) =  -287.840024651     A.U. after   12 cycles
 SCF Done:  E(RB3LYP) =  -287.840073492     A.U. after   12 cycles
 SCF Done:  E(RB3LYP) =  -287.840101003     A.U. after   10 cycles
 SCF Done:  E(RB3LYP) =  -287.840151093     A.U. after   11 cycles
 SCF Done:  E(RB3LYP) =  -287.840191913     A.U. after   11 cycles
 SCF Done:  E(RB3LYP) =  -287.840229967     A.U. after   11 cycles
 SCF Done:  E(RB3LYP) =  -287.840230890     A.U. after    8 cycles
 SCF Done:  E(RB3LYP) =  -287.840231335     A.U. after    8 cycles
 SCF Done:  E(RB3LYP) =  -287.840231994     A.U. after    8 cycles
 SCF Done:  E(RB3LYP) =  -287.840233214     A.U. after   10 cycles
 SCF Done:  E(RB3LYP) =  -287.840235995     A.U. after   11 cycles
 SCF Done:  E(RB3LYP) =  -287.840236272     A.U. after    8 cycles
 SCF Done:  E(RB3LYP) =  -287.840236232     A.U. after    7 cycles
 Optimization completed.
    -- Stationary point found.
 Normal termination of Gaussian 09 at Fri Feb 16 20:52:09 2018.

 --------------------------------------------------------------------
 #N Geom=AllCheck Guess=TCheck SCRF=Check GenChk RB3LYP/6-31G(d) Freq
 --------------------------------------------------------------------

 Structure from the checkpoint file:  frag44-conf0.chk
 -----------------------------
 Optimization for frag44-conf0
 -----------------------------
 Charge =  0 Multiplicity = 1

                         Standard orientation:
 ---------------------------------------------------------------------
 Center     Atomic      Atomic             Coordinates (Angstroms)
 Number     Number       Type             X           Y           Z
 ---------------------------------------------------------------------
      1          6           0        0.963019    0.166985   -0.043361
      2          6           0        2.248851   -0.585586    0.272794
      3          6           0       -2.333275   -0.048899    0.628730
      4          6           0       -1.435921   -0.057206   -0.612353
      5          7           0       -0.112979   -0.616498   -0.364424
      6          8           0        0.908647    1.390605   -0.019534
      7          1           0        3.045979   -0.202891   -0.371253
      8          1           0        2.537281   -0.374604    1.307647
      9          1           0        2.173973   -1.669829    0.140084
     10          1           0       -2.490117   -1.062697    1.016677
     11          1           0       -1.881248    0.556460    1.420752
     12          1           0       -3.315242    0.375620    0.389080
     13          1           0       -1.274945    0.963071   -0.967931
     14          1           0       -1.905145   -0.627260   -1.423243
     15          1           0       -0.024904   -1.618990   -0.279433
 ---------------------------------------------------------------------

 SCF Done:  E(RB3LYP) =  -287.840236232     A.U. after    1 cycles

 Isotropic polarizability for W=    0.000000       51.98 Bohr**3.
 End of Minotr Frequency-dependent properties file   721 does not exist.

                     1                      2                      3
                     A                      A                      A
 Frequencies --    26.3522                51.9359               111.5625
 Red. masses --     2.6390                 1.1700                 2.6885
 Frc consts  --     0.0011                 0.0019                 0.0197
 IR Inten    --     2.5396                 3.6092                 5.3490

                     4                      5                      6
                     A                      A                      A
 Frequencies --   221.1998               310.8690               379.9854
 Red. masses --     1.2476                 1.9108                 2.8319
 Frc consts  --     0.0360                 0.1088                 0.2409
 IR Inten    --     2.7477                 4.5415                 2.5853

                     7                      8                      9
                     A                      A                      A
 Frequencies --   430.6203               463.1455               609.1520
 Red. masses --     1.2625                 2.7631                 3.4261
 Frc consts  --     0.1379                 0.3492                 0.7490
 IR Inten    --    92.5447                14.2349                 2.6424

                    10                     11                     12
                     A                      A                      A
 Frequencies --   639.7944               776.6971               896.1023
 Red. masses --     2.3834                 1.3020                 1.9553
 Frc consts  --     0.5748                 0.4628                 0.9251
 IR Inten    --     1.4644                 5.8614                 0.5250

                    13                     14                     15
                     A                      A                      A
 Frequencies --   938.6027              1011.8468              1066.3926
 Red. masses --     2.7669                 1.6294                 1.7018
 Frc consts  --     1.4362                 0.9829                 1.1402
 IR Inten    --     3.5757                 7.0383                 9.8435

                    16                     17                     18
                     A                      A                      A
 Frequencies --  1093.6707              1140.5090              1184.7367
 Red. masses --     2.4193                 2.1492                 1.8876
 Frc consts  --     1.7049                 1.6471                 1.5610
 IR Inten    --     4.5912                 7.4015                 8.1974

                    19                     20                     21
                     A                      A                      A
 Frequencies --  1280.4192              1342.6512              1408.7446
 Red. masses --     1.9695                 1.1672                 1.2792
 Frc consts  --     1.9025                 1.2398                 1.4957
 IR Inten    --   110.5076                43.2243                 6.1921

                    22                     23                     24
                     A                      A                      A
 Frequencies --  1425.7367              1437.6131              1500.9286
 Red. masses --     1.2597                 1.2717                 1.0509
 Frc consts  --     1.5087                 1.5485                 1.3949
 IR Inten    --    22.2953                 5.7778                10.5047

                    25                     26                     27
                     A                      A                      A
 Frequencies --  1505.1977              1516.2672              1522.3591
 Red. masses --     1.0812                 1.0643                 1.0523
 Frc consts  --     1.4433                 1.4417                 1.4369
 IR Inten    --    11.5853                20.7835                 8.0507

                    28                     29                     30
                     A                      A                      A
 Frequencies --  1531.6060              1563.5016              1786.8566
 Red. masses --     1.0601                 1.8640                 9.0124
 Frc consts  --     1.4651                 2.6847                16.9539
 IR Inten    --     5.4290               189.1148               224.8688

                    31                     32                     33
                     A                      A                      A
 Frequencies --  3047.9324              3060.2691              3062.1887
 Red. masses --     1.0365                 1.0691                 1.0360
 Frc consts  --     5.6730                 5.8993                 5.7239
 IR Inten    --    25.1617                40.3702                 9.8340

                    34                     35                     36
                     A                      A                      A
 Frequencies --  3108.9731              3131.0477              3134.6225
 Red. masses --     1.1014                 1.0988                 1.1029
 Frc consts  --     6.2721                 6.3469                 6.3850
 IR Inten    --    25.0595                25.7469                16.1293

                    37                     38                     39
                     A                      A                      A
 Frequencies --  3143.1252              3145.1496              3625.0337
 Red. masses --     1.1015                 1.1001                 1.0775
 Frc consts  --     6.4114                 6.4116                 8.3421
 IR Inten    --     7.9893                19.3841                13.8130

 - Thermochemistry -
 -------------------
 Temperature   298.150 Kelvin.  Pressure   1.00000 Atm.
 Atom     1 has atomic number  6 and mass  12.00000

 Molecular mass:    87.06841 amu.
 Principal axes and moments of inertia in atomic units:
                           1         2         3
     Eigenvalues --   247.24124 865.11514 968.25562
           X            0.99964  -0.02697  -0.00012
           Y            0.02696   0.99953  -0.01473
           Z            0.00052   0.01473   0.99989
 This molecule is an asymmetric top.
 Rotational symmetry number  1.
 Rotational temperatures (Kelvin)      0.35032     0.10012     0.08945
 Rotational constants (GHZ):           7.29952     2.08613     1.86391
 Zero-point vibrational energy     344724.3 (Joules/Mol)
                                   82.39108 (Kcal/Mol)
 Warning -- explicit consideration of   9 degrees of freedom as
           vibrations may cause significant error
 Vibrational temperatures:     37.91    74.72   160.51   318.26   447.27
          (Kelvin)            546.71   619.57   666.36   876.43   920.52
                             1117.49  1289.29  1350.44  1455.82  1534.30
                             1573.55  1640.94  1704.57  1842.24  1931.77
                             2026.87  2051.31  2068.40  2159.50  2165.64
                             2181.57  2190.33  2203.64  2249.53  2570.88
                             4385.29  4403.04  4405.80  4473.11  4504.87
                             4510.02  4522.25  4525.16  5215.61

 Zero-point correction=                           0.131299 (Hartree/Particle)
 Thermal correction to Energy=                    0.139037
 Thermal correction to Enthalpy=                  0.139982
 Thermal correction to Gibbs Free Energy=         0.098187
 Sum of electronic and zero-point Energies=           -287.708938
 Sum of electronic and thermal Energies=              -287.701199
 Sum of electronic and thermal Enthalpies=            -287.700255
 Sum of electronic and thermal Free Energies=         -287.742049

                     E (Thermal)             CV                S
                      KCal/Mol        Cal/Mol-Kelvin    Cal/Mol-Kelvin
 Total                   87.247             25.623             87.964
 Electronic               0.000              0.000              0.000
 Translational            0.889              2.981             39.305
 Rotational               0.889              2.981             26.829
 Vibrational             85.470             19.661             21.830
 Vibration     1          0.593              1.985              6.087
 Vibration     2          0.596              1.977              4.742
 Vibration     3          0.607              1.940              3.242
 Vibration     4          0.648              1.809              1.949
 Vibration     5          0.700              1.653              1.358
 Vibration     6          0.750              1.513              1.039
 Vibration     7          0.792              1.404              0.857
 Vibration     8          0.821              1.332              0.757
 Vibration     9          0.968              1.012              0.434

 Optimization completed.
    -- Stationary point found.
 Normal termination of Gaussian 09 at Fri Feb 16 20:55:40 2018.
