 Gaussian 09, Revision C.01,
 Gaussian 09:  AM64L-G09RevC.01 23-Sep-2011

 ----------------------------------------------------------------------
 #HF/6-31G* Geom=AllCheck Guess=Read Pop=(MK,ReadRadii) Integral=(Grid=
 UltraFine) iop(6/33=2)
 ----------------------------------------------------------------------

 Structure from the checkpoint file:  frag44-conf0.chk
 -----------------------------
 Optimization for frag44-conf0
 -----------------------------
 Charge =  0 Multiplicity = 1

                         Standard orientation:
 ---------------------------------------------------------------------
 Center     Atomic      Atomic             Coordinates (Angstroms)
 Number     Number       Type             X           Y           Z
 ---------------------------------------------------------------------
      1          6           0        0.963019    0.166985   -0.043361
      2          6           0        2.248851   -0.585586    0.272794
      3          6           0       -2.333275   -0.048899    0.628730
      4          6           0       -1.435921   -0.057206   -0.612353
      5          7           0       -0.112979   -0.616498   -0.364424
      6          8           0        0.908647    1.390605   -0.019534
      7          1           0        3.045979   -0.202891   -0.371253
      8          1           0        2.537281   -0.374604    1.307647
      9          1           0        2.173973   -1.669829    0.140084
     10          1           0       -2.490117   -1.062697    1.016677
     11          1           0       -1.881248    0.556460    1.420752
     12          1           0       -3.315242    0.375620    0.389080
     13          1           0       -1.274945    0.963071   -0.967931
     14          1           0       -1.905145   -0.627260   -1.423243
     15          1           0       -0.024904   -1.618990   -0.279433
 ---------------------------------------------------------------------

 SCF Done:  E(RHF) =  -286.041370218     A.U. after   13 cycles

 The electronic state is 1-A.
 Alpha  occ. eigenvalues --  -20.51568 -15.58597 -11.35044 -11.26282 -11.23747
 Alpha  occ. eigenvalues --  -11.22003  -1.36783  -1.22316  -1.03151  -0.98042
 Alpha  occ. eigenvalues --   -0.85738  -0.78127  -0.68492  -0.65010  -0.61514
 Alpha  occ. eigenvalues --   -0.59670  -0.57725  -0.56779  -0.55030  -0.52053
 Alpha  occ. eigenvalues --   -0.49675  -0.49241  -0.41212  -0.38198
 Alpha virt. eigenvalues --    0.19944   0.21365   0.25531   0.27319   0.30037
 Alpha virt. eigenvalues --    0.30702   0.31826   0.32369   0.33245   0.34010
 Alpha virt. eigenvalues --    0.38771   0.40920   0.43178   0.49776   0.61378

 Mulliken atomic charges:
              1
     1  C    0.758051
     2  C   -0.576633
     3  C   -0.478772
     4  C   -0.116701
     5  N   -0.798425
     6  O   -0.626105
     7  H    0.209319
     8  H    0.205210
     9  H    0.164058
    10  H    0.148790
    11  H    0.183024
    12  H    0.162229
    13  H    0.220926
    14  H    0.166333
    15  H    0.378696
 Sum of Mulliken atomic charges =   0.00000

 Dipole moment (field-independent basis, Debye):
    X=             -0.6111    Y=             -3.8843    Z=             -0.0121  Tot=              3.9320
 Quadrupole moment (field-independent basis, Debye-Ang):
   XX=            -34.2294   YY=            -40.2014   ZZ=            -37.6905
   XY=             -3.5066   XZ=              1.1581   YZ=             -0.0192

 Normal termination of Gaussian 09 at Sat Feb 17 21:04:10 2018.
