 Gaussian 09, Revision C.01,
 Gaussian 09:  AM64L-G09RevC.01 23-Sep-2011

 ---------------------------------------------------------
 #B3LYP/6-31G* Integral=(Grid=UltraFine) freq Opt pop=none
 ---------------------------------------------------------

 99/9=1/99;
 -----------------------------
 Optimization for frag50-conf2
 -----------------------------
 Charge =  1 Multiplicity = 1

 SCF Done:  E(RB3LYP) =  -1253.55117705     A.U. after   15 cycles
 SCF Done:  E(RB3LYP) =  -1253.55846338     A.U. after   13 cycles
 SCF Done:  E(RB3LYP) =  -1253.55981348     A.U. after   13 cycles
 SCF Done:  E(RB3LYP) =  -1253.56036706     A.U. after   13 cycles
 SCF Done:  E(RB3LYP) =  -1253.56131304     A.U. after   14 cycles
 SCF Done:  E(RB3LYP) =  -1253.56245647     A.U. after   12 cycles
 SCF Done:  E(RB3LYP) =  -1253.56443929     A.U. after   13 cycles
 SCF Done:  E(RB3LYP) =  -1253.56818047     A.U. after   13 cycles
 SCF Done:  E(RB3LYP) =  -1253.56642200     A.U. after   13 cycles
 SCF Done:  E(RB3LYP) =  -1253.56968677     A.U. after   12 cycles
 SCF Done:  E(RB3LYP) =  -1253.58635397     A.U. after    9 cycles
 SCF Done:  E(RB3LYP) =  -1253.58635535     A.U. after    8 cycles
 SCF Done:  E(RB3LYP) =  -1253.58635602     A.U. after    8 cycles
 SCF Done:  E(RB3LYP) =  -1253.58635620     A.U. after    7 cycles
 SCF Done:  E(RB3LYP) =  -1253.58635628     A.U. after    7 cycles
 SCF Done:  E(RB3LYP) =  -1253.58635634     A.U. after    7 cycles
 SCF Done:  E(RB3LYP) =  -1253.58635638     A.U. after    6 cycles
 SCF Done:  E(RB3LYP) =  -1253.58635640     A.U. after    6 cycles
 SCF Done:  E(RB3LYP) =  -1253.58635642     A.U. after    6 cycles
 Optimization completed.
    -- Stationary point found.
 Normal termination of Gaussian 09 at Fri Feb 16 23:57:13 2018.

 --------------------------------------------------------------------
 #N Geom=AllCheck Guess=TCheck SCRF=Check GenChk RB3LYP/6-31G(d) Freq
 --------------------------------------------------------------------

 Structure from the checkpoint file:  frag50-conf2.chk
 -----------------------------
 Optimization for frag50-conf2
 -----------------------------
 Charge =  1 Multiplicity = 1

                         Standard orientation:
 ---------------------------------------------------------------------
 Center     Atomic      Atomic             Coordinates (Angstroms)
 Number     Number       Type             X           Y           Z
 ---------------------------------------------------------------------
      1          6           0       -0.085081    1.149118   -0.282178
      2          6           0       -4.474124   -0.371368    0.132157
      3          6           0       -0.330405    3.565327   -0.320067
      4          6           0        1.599920    2.601968    0.869633
      5          6           0        4.760679   -0.014999   -0.515200
      6          6           0       -1.351209   -1.578151    0.465404
      7          6           0       -0.009311   -1.409501   -0.287893
      8          6           0       -2.520296   -1.774059   -0.513689
      9          6           0        0.744634   -0.111434    0.057248
     10          7           0       -5.740289   -0.328452    0.597851
     11          7           0       -3.843806   -1.551096    0.089691
     12          7           0        2.050946   -0.014163   -0.629628
     13          7           0        0.385709    2.356755    0.089440
     14          7           0       -3.882763    0.751618   -0.273984
     15          8           0       -1.164093    1.024009   -0.898574
     16          8           0        3.371264   -2.270257   -0.389529
     17          8           0        3.178918   -0.628381    1.553296
     18         16           0        3.326647   -0.895605    0.117643
     19          1           0       -0.827318    4.028455    0.541129
     20          1           0       -1.069911    3.307581   -1.075593
     21          1           0        0.382981    4.284072   -0.736005
     22          1           0        2.383557    3.022782    0.229337
     23          1           0        1.978632    1.695756    1.335810
     24          1           0        1.366876    3.327401    1.656343
     25          1           0        5.637493   -0.516306   -0.098404
     26          1           0        4.774528   -0.088480   -1.604587
     27          1           0        4.716166    1.023620   -0.187173
     28          1           0       -1.301201   -2.427726    1.155508
     29          1           0       -1.555204   -0.696101    1.082319
     30          1           0        0.661581   -2.244023   -0.066481
     31          1           0       -0.182227   -1.428243   -1.371205
     32          1           0       -2.422470   -1.085053   -1.354189
     33          1           0       -2.526299   -2.788255   -0.923347
     34          1           0        0.963104   -0.107660    1.130100
     35          1           0       -6.308467   -1.161775    0.646162
     36          1           0       -6.196155    0.551585    0.789436
     37          1           0       -4.247622   -2.304453    0.631501
     38          1           0        1.977543   -0.308238   -1.605061
     39          1           0       -4.444153    1.574039   -0.444978
     40          1           0       -2.873903    0.823699   -0.480537
 ---------------------------------------------------------------------

 SCF Done:  E(RB3LYP) =  -1253.58635642     A.U. after    1 cycles

 Isotropic polarizability for W=    0.000000      154.42 Bohr**3.
 End of Minotr Frequency-dependent properties file   721 does not exist.

                     1                      2                      3
                     A                      A                      A
 Frequencies --    31.0552                36.1292                42.9070
 Red. masses --     4.4048                 5.4980                 4.9322
 Frc consts  --     0.0025                 0.0042                 0.0053
 IR Inten    --     2.7216                 5.7972                 2.5255

                     4                      5                      6
                     A                      A                      A
 Frequencies --    56.2556                72.3982                89.4803
 Red. masses --     4.3307                 3.5113                 3.1777
 Frc consts  --     0.0081                 0.0108                 0.0150
 IR Inten    --     2.9502                 2.0249                 0.8548

                     7                      8                      9
                     A                      A                      A
 Frequencies --   102.3226               108.7626               116.3732
 Red. masses --     1.5532                 4.2369                 2.4304
 Frc consts  --     0.0096                 0.0295                 0.0194
 IR Inten    --     1.4068                 4.5803                 1.5962

                    10                     11                     12
                     A                      A                      A
 Frequencies --   134.3479               150.2073               162.1154
 Red. masses --     2.4458                 3.5529                 1.7716
 Frc consts  --     0.0260                 0.0472                 0.0274
 IR Inten    --    11.9707                 4.3466                 7.5593

                    13                     14                     15
                     A                      A                      A
 Frequencies --   189.9666               203.2730               209.5513
 Red. masses --     1.7736                 1.2897                 1.4328
 Frc consts  --     0.0377                 0.0314                 0.0371
 IR Inten    --     7.9267                67.0236               140.0457

                    16                     17                     18
                     A                      A                      A
 Frequencies --   216.4405               241.5153               263.3217
 Red. masses --     2.9775                 2.9799                 3.8534
 Frc consts  --     0.0822                 0.1024                 0.1574
 IR Inten    --     2.3247                 5.4707                 9.5737

                    19                     20                     21
                     A                      A                      A
 Frequencies --   288.8580               306.4596               312.8908
 Red. masses --     2.7372                 3.7614                 1.7391
 Frc consts  --     0.1346                 0.2081                 0.1003
 IR Inten    --     6.8839                 3.0147                 8.7994

                    22                     23                     24
                     A                      A                      A
 Frequencies --   328.5974               337.0198               367.4415
 Red. masses --     2.6331                 2.5215                 1.6119
 Frc consts  --     0.1675                 0.1687                 0.1282
 IR Inten    --     5.0892                 2.1619                25.1464

                    25                     26                     27
                     A                      A                      A
 Frequencies --   378.0994               395.5975               417.9451
 Red. masses --     3.7126                 3.4850                 2.5068
 Frc consts  --     0.3127                 0.3213                 0.2580
 IR Inten    --    13.6348                 5.1357                 7.2231

                    28                     29                     30
                     A                      A                      A
 Frequencies --   452.6761               488.4201               495.6399
 Red. masses --     3.6570                 3.6404                 4.2789
 Frc consts  --     0.4415                 0.5117                 0.6193
 IR Inten    --    36.3957                38.8857                33.0863

                    31                     32                     33
                     A                      A                      A
 Frequencies --   503.1448               511.0957               530.8388
 Red. masses --     1.3988                 3.5509                 1.8333
 Frc consts  --     0.2086                 0.5465                 0.3044
 IR Inten    --    36.9896                33.0006                97.7196

                    34                     35                     36
                     A                      A                      A
 Frequencies --   553.4671               605.2905               638.9033
 Red. masses --     1.4683                 4.2100                 3.2554
 Frc consts  --     0.2650                 0.9088                 0.7829
 IR Inten    --   109.8880                40.8504                11.6166

                    37                     38                     39
                     A                      A                      A
 Frequencies --   640.6189               701.0170               725.2783
 Red. masses --     4.3237                 6.1582                 3.5324
 Frc consts  --     1.0454                 1.7830                 1.0948
 IR Inten    --    46.3514                 7.8687                32.5878

                    40                     41                     42
                     A                      A                      A
 Frequencies --   741.6951               766.6108               790.3109
 Red. masses --     1.9141                 2.7991                 2.1291
 Frc consts  --     0.6204                 0.9692                 0.7835
 IR Inten    --     3.3182                41.0856                55.6972

                    43                     44                     45
                     A                      A                      A
 Frequencies --   812.7379               861.3910               908.7266
 Red. masses --     1.0585                 2.1306                 2.5610
 Frc consts  --     0.4119                 0.9314                 1.2460
 IR Inten    --    87.3427               123.6724                 7.5935

                    46                     47                     48
                     A                      A                      A
 Frequencies --   947.2488               976.9129               998.6248
 Red. masses --     2.7230                 2.5206                 1.3982
 Frc consts  --     1.4395                 1.4173                 0.8215
 IR Inten    --     3.7249                 3.4973                34.3745

                    49                     50                     51
                     A                      A                      A
 Frequencies --  1000.5058              1026.7290              1043.8704
 Red. masses --     1.5548                 2.5928                 3.9477
 Frc consts  --     0.9170                 1.6104                 2.5345
 IR Inten    --    39.2722                28.5694                29.7732

                    52                     53                     54
                     A                      A                      A
 Frequencies --  1076.2188              1080.9441              1085.9074
 Red. masses --     2.6456                 2.1022                 1.4653
 Frc consts  --     1.8054                 1.4472                 1.0181
 IR Inten    --    22.2295                17.1775                11.5951

                    55                     56                     57
                     A                      A                      A
 Frequencies --  1100.8892              1105.4395              1123.5910
 Red. masses --     2.3067                 1.8533                 2.1733
 Frc consts  --     1.6471                 1.3343                 1.6165
 IR Inten    --    34.4314                 6.6525                46.1568

                    58                     59                     60
                     A                      A                      A
 Frequencies --  1133.9035              1137.1104              1169.3025
 Red. masses --     1.3022                 5.0131                 2.0337
 Frc consts  --     0.9864                 3.8191                 1.6383
 IR Inten    --     8.2246                79.8728                52.7853

                    61                     62                     63
                     A                      A                      A
 Frequencies --  1181.7277              1193.9000              1247.2375
 Red. masses --     1.3992                 1.8868                 1.2379
 Frc consts  --     1.1513                 1.5845                 1.1346
 IR Inten    --     3.2903                38.2887                 3.3100

                    64                     65                     66
                     A                      A                      A
 Frequencies --  1270.1110              1277.4743              1307.3703
 Red. masses --     1.1879                 4.3792                 1.4935
 Frc consts  --     1.1290                 4.2106                 1.5040
 IR Inten    --     3.4338                35.4044                39.3112

                    67                     68                     69
                     A                      A                      A
 Frequencies --  1325.2922              1340.5571              1355.9593
 Red. masses --     3.2998                 1.2881                 1.1343
 Frc consts  --     3.4147                 1.3638                 1.2288
 IR Inten    --   145.1796                24.6435                 5.0760

                    70                     71                     72
                     A                      A                      A
 Frequencies --  1384.2787              1386.3516              1408.2925
 Red. masses --     1.2222                 1.2927                 1.2972
 Frc consts  --     1.3799                 1.4639                 1.5158
 IR Inten    --     7.3121                13.7313                11.9388

                    73                     74                     75
                     A                      A                      A
 Frequencies --  1424.7513              1454.7592              1456.6430
 Red. masses --     1.3897                 1.2659                 1.4080
 Frc consts  --     1.6621                 1.5785                 1.7602
 IR Inten    --     4.3770                44.2499                32.2356

                    76                     77                     78
                     A                      A                      A
 Frequencies --  1458.1740              1470.4942              1479.3626
 Red. masses --     1.2679                 1.6890                 1.0608
 Frc consts  --     1.5884                 2.1518                 1.3679
 IR Inten    --    27.8392                37.4541                 9.7929

                    79                     80                     81
                     A                      A                      A
 Frequencies --  1485.0874              1505.7435              1520.0710
 Red. masses --     1.0822                 1.2253                 1.0494
 Frc consts  --     1.4063                 1.6368                 1.4287
 IR Inten    --     4.1375                21.9214                 7.8230

                    82                     83                     84
                     A                      A                      A
 Frequencies --  1520.8258              1526.4359              1527.5241
 Red. masses --     1.0818                 1.0964                 1.0978
 Frc consts  --     1.4742                 1.5052                 1.5092
 IR Inten    --     7.8182                10.6046                16.4678

                    85                     86                     87
                     A                      A                      A
 Frequencies --  1535.1130              1539.1721              1563.3800
 Red. masses --     1.0439                 1.0938                 1.4632
 Frc consts  --     1.4493                 1.5268                 2.1071
 IR Inten    --    11.2433                10.6049                42.2122

                    88                     89                     90
                     A                      A                      A
 Frequencies --  1628.3989              1667.1224              1690.2315
 Red. masses --     1.4508                 2.7616                 4.3399
 Frc consts  --     2.2667                 4.5222                 7.3050
 IR Inten    --    19.6333               288.8691               529.7620

                    91                     92                     93
                     A                      A                      A
 Frequencies --  1707.8268              1734.3724              3055.2618
 Red. masses --     1.7939                 1.8244                 1.0399
 Frc consts  --     3.0827                 3.2333                 5.7191
 IR Inten    --   407.2765               194.1972                18.7563

                    94                     95                     96
                     A                      A                      A
 Frequencies --  3057.2602              3062.0613              3064.8225
 Red. masses --     1.0687                 1.0403                 1.0604
 Frc consts  --     5.8856                 5.7470                 5.8688
 IR Inten    --     7.4309                47.4213                16.4488

                    97                     98                     99
                     A                      A                      A
 Frequencies --  3090.2023              3091.7503              3095.4022
 Red. masses --     1.0298                 1.0879                 1.0825
 Frc consts  --     5.7938                 6.1272                 6.1110
 IR Inten    --     0.6669                 5.5298                 7.3710

                   100                    101                    102
                     A                      A                      A
 Frequencies --  3103.9001              3115.5902              3117.9907
 Red. masses --     1.0797                 1.1035                 1.1034
 Frc consts  --     6.1286                 6.3113                 6.3200
 IR Inten    --    27.0328                30.0803                 3.1130

                   103                    104                    105
                     A                      A                      A
 Frequencies --  3125.8033              3159.2240              3186.0195
 Red. masses --     1.0975                 1.1044                 1.1065
 Frc consts  --     6.3178                 6.4944                 6.6176
 IR Inten    --     4.2635                 5.5485                 0.7506

                   106                    107                    108
                     A                      A                      A
 Frequencies --  3201.1502              3204.9736              3211.1897
 Red. masses --     1.0988                 1.1084                 1.0981
 Frc consts  --     6.6339                 6.7077                 6.6714
 IR Inten    --     2.8486                 0.2920                 1.2167

                   109                    110                    111
                     A                      A                      A
 Frequencies --  3265.1095              3485.3704              3606.1318
 Red. masses --     1.0766                 1.0745                 1.0621
 Frc consts  --     6.7622                 7.6905                 8.1374
 IR Inten    --  1352.8391                14.2402                83.8893

                   112                    113                    114
                     A                      A                      A
 Frequencies --  3613.2862              3657.9796              3718.3037
 Red. masses --     1.0627                 1.0839                 1.1059
 Frc consts  --     8.1745                 8.5449                 9.0086
 IR Inten    --   107.2539               116.3278                82.2022

 - Thermochemistry -
 -------------------
 Temperature   298.150 Kelvin.  Pressure   1.00000 Atm.
 Atom     1 has atomic number  6 and mass  12.00000

 Molecular mass:   280.14434 amu.
 Principal axes and moments of inertia in atomic units:
                           1         2         3
     Eigenvalues --  2883.576219485.95877**********
           X            0.99988   0.01467  -0.00436
           Y           -0.01464   0.99987   0.00656
           Z            0.00446  -0.00650   0.99997
 This molecule is an asymmetric top.
 Rotational symmetry number  1.
 Warning -- assumption of classical behavior for rotation
           may cause significant error
 Rotational temperatures (Kelvin)      0.03004     0.00913     0.00748
 Rotational constants (GHZ):           0.62587     0.19025     0.15577
 Zero-point vibrational energy     904120.9 (Joules/Mol)
                                  216.09009 (Kcal/Mol)
 Warning -- explicit consideration of  35 degrees of freedom as
           vibrations may cause significant error
 Vibrational temperatures:     44.68    51.98    61.73    80.94   104.16
          (Kelvin)            128.74   147.22   156.48   167.43   193.30
                              216.11   233.25   273.32   292.46   301.50
                              311.41   347.49   378.86   415.60   440.93
                              450.18   472.78   484.90   528.67   544.00
                              569.18   601.33   651.30   702.73   713.11
                              723.91   735.35   763.76   796.31   870.88
                              919.24   921.71  1008.61  1043.51  1067.13
                             1102.98  1137.08  1169.35  1239.35  1307.45
                             1362.88  1405.56  1436.80  1439.50  1477.23
                             1501.89  1548.44  1555.24  1562.38  1583.93
                             1590.48  1616.59  1631.43  1636.05  1682.36
                             1700.24  1717.75  1794.49  1827.40  1838.00
                             1881.01  1906.80  1928.76  1950.92  1991.67
                             1994.65  2026.22  2049.90  2093.07  2095.78
                             2097.98  2115.71  2128.47  2136.71  2166.43
                             2187.04  2188.13  2196.20  2197.76  2208.68
                             2214.52  2249.35  2342.90  2398.61  2431.86
                             2457.18  2495.37  4395.83  4398.71  4405.62
                             4409.59  4446.11  4448.33  4453.59  4465.81
                             4482.63  4486.09  4497.33  4545.41  4583.97
                             4605.74  4611.24  4620.18  4697.76  5014.66
                             5188.41  5198.71  5263.01  5349.80

 Zero-point correction=                           0.344361 (Hartree/Particle)
 Thermal correction to Energy=                    0.366027
 Thermal correction to Enthalpy=                  0.366971
 Thermal correction to Gibbs Free Energy=         0.293213
 Sum of electronic and zero-point Energies=          -1253.241995
 Sum of electronic and thermal Energies=             -1253.220329
 Sum of electronic and thermal Enthalpies=           -1253.219385
 Sum of electronic and thermal Free Energies=        -1253.293144

                     E (Thermal)             CV                S
                      KCal/Mol        Cal/Mol-Kelvin    Cal/Mol-Kelvin
 Total                  229.686             79.212            155.238
 Electronic               0.000              0.000              0.000
 Translational            0.889              2.981             42.789
 Rotational               0.889              2.981             34.115
 Vibrational            227.908             73.250             78.334
 Vibration     1          0.594              1.983              5.761
 Vibration     2          0.594              1.982              5.461
 Vibration     3          0.595              1.980              5.120
 Vibration     4          0.596              1.975              4.584
 Vibration     5          0.598              1.967              4.087
 Vibration     6          0.602              1.957              3.671
 Vibration     7          0.604              1.947              3.410
 Vibration     8          0.606              1.942              3.291
 Vibration     9          0.608              1.936              3.160
 Vibration    10          0.613              1.919              2.883
 Vibration    11          0.618              1.902              2.670
 Vibration    12          0.622              1.889              2.525
 Vibration    13          0.633              1.854              2.228
 Vibration    14          0.639              1.835              2.103
 Vibration    15          0.642              1.826              2.048
 Vibration    16          0.645              1.816              1.989
 Vibration    17          0.658              1.777              1.792
 Vibration    18          0.670              1.740              1.640
 Vibration    19          0.685              1.694              1.481
 Vibration    20          0.697              1.661              1.381
 Vibration    21          0.701              1.649              1.347
 Vibration    22          0.712              1.618              1.267
 Vibration    23          0.718              1.602              1.226
 Vibration    24          0.740              1.539              1.090
 Vibration    25          0.748              1.517              1.047
 Vibration    26          0.762              1.480              0.979
 Vibration    27          0.781              1.431              0.899
 Vibration    28          0.811              1.355              0.788
 Vibration    29          0.844              1.276              0.688
 Vibration    30          0.851              1.260              0.669
 Vibration    31          0.858              1.243              0.650
 Vibration    32          0.866              1.225              0.631
 Vibration    33          0.886              1.182              0.585
 Vibration    34          0.909              1.132              0.537
 Vibration    35          0.964              1.021              0.441

 Optimization completed.
    -- Stationary point found.
 Normal termination of Gaussian 09 at Sat Feb 17 01:10:41 2018.
