 Gaussian 09, Revision C.01,
 Gaussian 09:  AM64L-G09RevC.01 23-Sep-2011

 ----------------------------------------------------------------------
 #HF/6-31G* Geom=AllCheck Guess=Read Pop=(MK,ReadRadii) Integral=(Grid=
 UltraFine) iop(6/33=2)
 ----------------------------------------------------------------------

 Structure from the checkpoint file:  frag50-conf2.chk
 -----------------------------
 Optimization for frag50-conf2
 -----------------------------
 Charge =  1 Multiplicity = 1

                         Standard orientation:
 ---------------------------------------------------------------------
 Center     Atomic      Atomic             Coordinates (Angstroms)
 Number     Number       Type             X           Y           Z
 ---------------------------------------------------------------------
      1          6           0       -0.085081    1.149118   -0.282178
      2          6           0       -4.474124   -0.371368    0.132157
      3          6           0       -0.330405    3.565327   -0.320067
      4          6           0        1.599920    2.601968    0.869633
      5          6           0        4.760679   -0.014999   -0.515200
      6          6           0       -1.351209   -1.578151    0.465404
      7          6           0       -0.009311   -1.409501   -0.287893
      8          6           0       -2.520296   -1.774059   -0.513689
      9          6           0        0.744634   -0.111434    0.057248
     10          7           0       -5.740289   -0.328452    0.597851
     11          7           0       -3.843806   -1.551096    0.089691
     12          7           0        2.050946   -0.014163   -0.629628
     13          7           0        0.385709    2.356755    0.089440
     14          7           0       -3.882763    0.751618   -0.273984
     15          8           0       -1.164093    1.024009   -0.898574
     16          8           0        3.371264   -2.270257   -0.389529
     17          8           0        3.178918   -0.628381    1.553296
     18         16           0        3.326647   -0.895605    0.117643
     19          1           0       -0.827318    4.028455    0.541129
     20          1           0       -1.069911    3.307581   -1.075593
     21          1           0        0.382981    4.284072   -0.736005
     22          1           0        2.383557    3.022782    0.229337
     23          1           0        1.978632    1.695756    1.335810
     24          1           0        1.366876    3.327401    1.656343
     25          1           0        5.637493   -0.516306   -0.098404
     26          1           0        4.774528   -0.088480   -1.604587
     27          1           0        4.716166    1.023620   -0.187173
     28          1           0       -1.301201   -2.427726    1.155508
     29          1           0       -1.555204   -0.696101    1.082319
     30          1           0        0.661581   -2.244023   -0.066481
     31          1           0       -0.182227   -1.428243   -1.371205
     32          1           0       -2.422470   -1.085053   -1.354189
     33          1           0       -2.526299   -2.788255   -0.923347
     34          1           0        0.963104   -0.107660    1.130100
     35          1           0       -6.308467   -1.161775    0.646162
     36          1           0       -6.196155    0.551585    0.789436
     37          1           0       -4.247622   -2.304453    0.631501
     38          1           0        1.977543   -0.308238   -1.605061
     39          1           0       -4.444153    1.574039   -0.444978
     40          1           0       -2.873903    0.823699   -0.480537
 ---------------------------------------------------------------------

 SCF Done:  E(RHF) =  -1247.72617545     A.U. after   13 cycles

 The electronic state is 1-A.
 Alpha  occ. eigenvalues --  -92.30490 -20.65321 -20.65139 -20.65069 -15.76301
 Alpha  occ. eigenvalues --  -15.76082 -15.74932 -15.71437 -15.71425 -11.56550
 Alpha  occ. eigenvalues --  -11.48063 -11.40486 -11.40333 -11.36739 -11.36492
 Alpha  occ. eigenvalues --  -11.36240 -11.35326 -11.34548  -9.27686  -6.96267
 Alpha  occ. eigenvalues --   -6.96233  -6.96148  -1.54691  -1.50284  -1.49793
 Alpha  occ. eigenvalues --   -1.42880  -1.36886  -1.36173  -1.34906  -1.33587
 Alpha  occ. eigenvalues --   -1.19533  -1.14456  -1.10858  -1.07802  -1.06570
 Alpha  occ. eigenvalues --   -1.02564  -0.99233  -0.94471  -0.94019  -0.92843
 Alpha  occ. eigenvalues --   -0.90298  -0.86321  -0.83782  -0.83021  -0.82655
 Alpha  occ. eigenvalues --   -0.79507  -0.78402  -0.77449  -0.76307  -0.75682
 Alpha  occ. eigenvalues --   -0.75530  -0.74858  -0.74361  -0.72109  -0.69944
 Alpha  occ. eigenvalues --   -0.68923  -0.68254  -0.67440  -0.67247  -0.67008
 Alpha  occ. eigenvalues --   -0.66171  -0.65119  -0.63900  -0.63693  -0.61121
 Alpha  occ. eigenvalues --   -0.60893  -0.59878  -0.58361  -0.58189  -0.56595
 Alpha  occ. eigenvalues --   -0.55703  -0.55350  -0.54228  -0.51500  -0.48717
 Alpha virt. eigenvalues --    0.03761   0.04743   0.05394   0.09572   0.10417
 Alpha virt. eigenvalues --    0.11217   0.12601   0.13475   0.14113   0.15105
 Alpha virt. eigenvalues --    0.15470   0.16015   0.17013   0.17342   0.17877

 Mulliken atomic charges:
              1
     1  C    0.848774
     2  C    1.030675
     3  C   -0.304562
     4  C   -0.302752
     5  C   -0.711379
     6  C   -0.327606
     7  C   -0.330029
     8  C   -0.160311
     9  C   -0.147995
    10  N   -0.931846
    11  N   -0.805612
    12  N   -0.881446
    13  N   -0.646943
    14  N   -0.983506
    15  O   -0.733861
    16  O   -0.667208
    17  O   -0.701836
    18  S    1.614560
    19  H    0.184351
    20  H    0.220149
    21  H    0.196503
    22  H    0.191373
    23  H    0.229527
    24  H    0.195964
    25  H    0.259062
    26  H    0.233202
    27  H    0.237788
    28  H    0.200103
    29  H    0.169800
    30  H    0.239241
    31  H    0.182644
    32  H    0.237431
    33  H    0.225457
    34  H    0.271085
    35  H    0.435442
    36  H    0.434248
    37  H    0.421886
    38  H    0.402387
    39  H    0.422996
    40  H    0.552244
 Sum of Mulliken atomic charges =   1.00000

 Dipole moment (field-independent basis, Debye):
    X=            -13.4966    Y=              2.8781    Z=             -0.7267  Tot=             13.8192
 Quadrupole moment (field-independent basis, Debye-Ang):
   XX=             -6.7748   YY=            -96.8687   ZZ=           -116.7534
   XY=             20.1486   XZ=            -17.0926   YZ=              0.6999

 Normal termination of Gaussian 09 at Sat Feb 17 21:08:41 2018.
