 Gaussian 09, Revision C.01,
 Gaussian 09:  AM64L-G09RevC.01 23-Sep-2011

 ----------------------------------------------------------------------
 #HF/6-31G* Geom=AllCheck Guess=Read Pop=(MK,ReadRadii) Integral=(Grid=
 UltraFine) iop(6/33=2)
 ----------------------------------------------------------------------

 Structure from the checkpoint file:  frag13-conf0.chk
 -----------------------------
 Optimization for frag13-conf0
 -----------------------------
 Charge =  1 Multiplicity = 1

                         Standard orientation:
 ---------------------------------------------------------------------
 Center     Atomic      Atomic             Coordinates (Angstroms)
 Number     Number       Type             X           Y           Z
 ---------------------------------------------------------------------
      1          6           0        2.200788   -0.346161    0.139465
      2          6           0       -4.290233    0.177199   -0.272606
      3          6           0       -3.575601   -1.149799   -0.566031
      4          6           0       -3.355618    1.376549   -0.486800
      5          6           0       -2.282433   -1.291156    0.258454
      6          6           0       -2.061234    1.241843    0.338345
      7          6           0       -1.367105   -0.085290    0.022192
      8          6           0        4.476616   -0.749043   -0.592893
      9          6           0        3.730159    1.582574   -0.205356
     10          6           0        1.063565    0.628304    0.556440
     11          7           0        3.393603    0.159971   -0.197148
     12          7           0       -0.108611   -0.255570    0.867787
     13          8           0        1.917739   -1.552693    0.143998
     14          1           0       -5.173655    0.274872   -0.912389
     15          1           0       -4.654123    0.176895    0.764437
     16          1           0       -4.230673   -1.999403   -0.348079
     17          1           0       -3.329895   -1.211456   -1.635014
     18          1           0       -3.097191    1.460082   -1.551462
     19          1           0       -3.855631    2.311534   -0.213816
     20          1           0       -2.537559   -1.347659    1.327282
     21          1           0       -1.760830   -2.220625   -0.002755
     22          1           0       -1.396813    2.091965    0.139181
     23          1           0       -2.308888    1.268309    1.410374
     24          1           0       -1.004379   -0.093028   -1.012511
     25          1           0        4.795773   -0.516948   -1.614215
     26          1           0        4.117740   -1.775127   -0.543838
     27          1           0        5.327686   -0.621729    0.083994
     28          1           0        4.555547    1.773704    0.488981
     29          1           0        2.882756    2.201944    0.088697
     30          1           0        4.045016    1.883409   -1.210417
     31          1           0        1.321999    1.219030    1.437087
     32          1           0        0.790669    1.307733   -0.252931
     33          1           0       -0.363406   -0.188368    1.857568
     34          1           0        0.305577   -1.214509    0.706103
 ---------------------------------------------------------------------

 SCF Done:  E(RHF) =  -574.485326436     A.U. after   13 cycles

 The electronic state is 1-A.
 Alpha  occ. eigenvalues --  -20.68787 -15.83808 -15.74756 -11.52053 -11.46742
 Alpha  occ. eigenvalues --  -11.44277 -11.40451 -11.37879 -11.37575 -11.37063
 Alpha  occ. eigenvalues --  -11.34891 -11.34570 -11.33643  -1.54552  -1.46102
 Alpha  occ. eigenvalues --   -1.39644  -1.25864  -1.17587  -1.14626  -1.12835
 Alpha  occ. eigenvalues --   -1.10688  -1.06539  -0.98880  -0.98153  -0.93743
 Alpha  occ. eigenvalues --   -0.90226  -0.88171  -0.85059  -0.82895  -0.81409
 Alpha  occ. eigenvalues --   -0.79491  -0.77634  -0.76997  -0.74978  -0.73704
 Alpha  occ. eigenvalues --   -0.73085  -0.71473  -0.69465  -0.68891  -0.67721
 Alpha  occ. eigenvalues --   -0.67116  -0.66748  -0.66419  -0.65054  -0.64183
 Alpha  occ. eigenvalues --   -0.62252  -0.59041  -0.58477  -0.57734  -0.56897
 Alpha  occ. eigenvalues --   -0.51807
 Alpha virt. eigenvalues --    0.02474   0.04123   0.07481   0.09220   0.09398
 Alpha virt. eigenvalues --    0.11924   0.13600   0.14369   0.15560   0.16634
 Alpha virt. eigenvalues --    0.16741   0.17322   0.17702   0.18203   0.18694

 Mulliken atomic charges:
              1
     1  C    0.809379
     2  C   -0.326109
     3  C   -0.331989
     4  C   -0.330319
     5  C   -0.344065
     6  C   -0.334382
     7  C   -0.022808
     8  C   -0.315300
     9  C   -0.308002
    10  C   -0.255753
    11  N   -0.657001
    12  N   -0.821050
    13  O   -0.660776
    14  H    0.206134
    15  H    0.174507
    16  H    0.210082
    17  H    0.180747
    18  H    0.178672
    19  H    0.207820
    20  H    0.179966
    21  H    0.207908
    22  H    0.187244
    23  H    0.178829
    24  H    0.228697
    25  H    0.202251
    26  H    0.253011
    27  H    0.202922
    28  H    0.218508
    29  H    0.183923
    30  H    0.217884
    31  H    0.263203
    32  H    0.261825
    33  H    0.442762
    34  H    0.511281
 Sum of Mulliken atomic charges =   1.00000

 Dipole moment (field-independent basis, Debye):
    X=              1.6382    Y=              3.1523    Z=              1.8531  Tot=              4.0068
 Quadrupole moment (field-independent basis, Debye-Ang):
   XX=            -39.4524   YY=            -76.7783   ZZ=            -73.1650
   XY=              8.3389   XZ=             -1.9627   YZ=              0.1182

 Normal termination of Gaussian 09 at Sat Feb 17 20:57:18 2018.
