 Gaussian 09, Revision C.01,
 Gaussian 09:  AM64L-G09RevC.01 23-Sep-2011

 ---------------------------------------------------------
 #B3LYP/6-31G* Integral=(Grid=UltraFine) freq Opt pop=none
 ---------------------------------------------------------

 99/9=1/99;
 -----------------------------
 Optimization for frag13-conf0
 -----------------------------
 Charge =  1 Multiplicity = 1

 SCF Done:  E(RB3LYP) =  -578.235006324     A.U. after   14 cycles
 SCF Done:  E(RB3LYP) =  -578.242513007     A.U. after   13 cycles
 SCF Done:  E(RB3LYP) =  -578.244596142     A.U. after   14 cycles
 SCF Done:  E(RB3LYP) =  -578.245485211     A.U. after   12 cycles
 SCF Done:  E(RB3LYP) =  -578.245739365     A.U. after   12 cycles
 SCF Done:  E(RB3LYP) =  -578.246320369     A.U. after   11 cycles
 SCF Done:  E(RB3LYP) =  -578.246515219     A.U. after   10 cycles
 SCF Done:  E(RB3LYP) =  -578.246617068     A.U. after   12 cycles
 SCF Done:  E(RB3LYP) =  -578.246656778     A.U. after   11 cycles
 SCF Done:  E(RB3LYP) =  -578.246701406     A.U. after   10 cycles
 SCF Done:  E(RB3LYP) =  -578.246725339     A.U. after    9 cycles
 SCF Done:  E(RB3LYP) =  -578.246727951     A.U. after    9 cycles
 SCF Done:  E(RB3LYP) =  -578.246730819     A.U. after    9 cycles
 SCF Done:  E(RB3LYP) =  -578.246732648     A.U. after    9 cycles
 SCF Done:  E(RB3LYP) =  -578.246732762     A.U. after    7 cycles
 SCF Done:  E(RB3LYP) =  -578.246732864     A.U. after    7 cycles
 SCF Done:  E(RB3LYP) =  -578.246732971     A.U. after    6 cycles
 SCF Done:  E(RB3LYP) =  -578.246733077     A.U. after    7 cycles
 SCF Done:  E(RB3LYP) =  -578.246733091     A.U. after    6 cycles
 Optimization completed.
    -- Stationary point found.
 Normal termination of Gaussian 09 at Fri Feb 16 18:59:08 2018.

 --------------------------------------------------------------------
 #N Geom=AllCheck Guess=TCheck SCRF=Check GenChk RB3LYP/6-31G(d) Freq
 --------------------------------------------------------------------

 Structure from the checkpoint file:  frag13-conf0.chk
 -----------------------------
 Optimization for frag13-conf0
 -----------------------------
 Charge =  1 Multiplicity = 1

                         Standard orientation:
 ---------------------------------------------------------------------
 Center     Atomic      Atomic             Coordinates (Angstroms)
 Number     Number       Type             X           Y           Z
 ---------------------------------------------------------------------
      1          6           0        2.200788   -0.346161    0.139465
      2          6           0       -4.290233    0.177199   -0.272606
      3          6           0       -3.575601   -1.149799   -0.566031
      4          6           0       -3.355618    1.376549   -0.486800
      5          6           0       -2.282433   -1.291156    0.258454
      6          6           0       -2.061234    1.241843    0.338345
      7          6           0       -1.367105   -0.085290    0.022192
      8          6           0        4.476616   -0.749043   -0.592893
      9          6           0        3.730159    1.582574   -0.205356
     10          6           0        1.063565    0.628304    0.556440
     11          7           0        3.393603    0.159971   -0.197148
     12          7           0       -0.108611   -0.255570    0.867787
     13          8           0        1.917739   -1.552693    0.143998
     14          1           0       -5.173655    0.274872   -0.912389
     15          1           0       -4.654123    0.176895    0.764437
     16          1           0       -4.230673   -1.999403   -0.348079
     17          1           0       -3.329895   -1.211456   -1.635014
     18          1           0       -3.097191    1.460082   -1.551462
     19          1           0       -3.855631    2.311534   -0.213816
     20          1           0       -2.537559   -1.347659    1.327282
     21          1           0       -1.760830   -2.220625   -0.002755
     22          1           0       -1.396813    2.091965    0.139181
     23          1           0       -2.308888    1.268309    1.410374
     24          1           0       -1.004379   -0.093028   -1.012511
     25          1           0        4.795773   -0.516948   -1.614215
     26          1           0        4.117740   -1.775127   -0.543838
     27          1           0        5.327686   -0.621729    0.083994
     28          1           0        4.555547    1.773704    0.488981
     29          1           0        2.882756    2.201944    0.088697
     30          1           0        4.045016    1.883409   -1.210417
     31          1           0        1.321999    1.219030    1.437087
     32          1           0        0.790669    1.307733   -0.252931
     33          1           0       -0.363406   -0.188368    1.857568
     34          1           0        0.305577   -1.214509    0.706103
 ---------------------------------------------------------------------

 SCF Done:  E(RB3LYP) =  -578.246733091     A.U. after    1 cycles

 Isotropic polarizability for W=    0.000000      119.97 Bohr**3.
 End of Minotr Frequency-dependent properties file   721 does not exist.

                     1                      2                      3
                     A                      A                      A
 Frequencies --    14.7785                48.1020                61.4304
 Red. masses --     3.3634                 2.9446                 2.8419
 Frc consts  --     0.0004                 0.0040                 0.0063
 IR Inten    --     1.4244                 1.7875                 3.1997

                     4                      5                      6
                     A                      A                      A
 Frequencies --    87.7531               101.4868               118.1338
 Red. masses --     1.2711                 1.3829                 2.1677
 Frc consts  --     0.0058                 0.0084                 0.0178
 IR Inten    --     0.4484                 1.4067                 1.1526

                     7                      8                      9
                     A                      A                      A
 Frequencies --   142.2493               212.8572               216.9626
 Red. masses --     2.6545                 2.8525                 2.7404
 Frc consts  --     0.0316                 0.0761                 0.0760
 IR Inten    --     2.9177                 1.9170                 2.1261

                    10                     11                     12
                     A                      A                      A
 Frequencies --   235.0865               265.6820               287.5120
 Red. masses --     2.1111                 2.4509                 2.5113
 Frc consts  --     0.0687                 0.1019                 0.1223
 IR Inten    --     0.6922                 4.9882                 6.6076

                    13                     14                     15
                     A                      A                      A
 Frequencies --   326.7629               392.0534               399.2516
 Red. masses --     1.9907                 2.7362                 2.6209
 Frc consts  --     0.1252                 0.2478                 0.2461
 IR Inten    --     0.7996                35.7206                 0.0782

                    16                     17                     18
                     A                      A                      A
 Frequencies --   441.5586               446.5390               470.2445
 Red. masses --     3.1656                 2.4520                 2.3405
 Frc consts  --     0.3637                 0.2881                 0.3049
 IR Inten    --     8.9492                 9.7798                41.9633

                    19                     20                     21
                     A                      A                      A
 Frequencies --   518.6459               559.1643               571.1459
 Red. masses --     2.1860                 2.6383                 2.5539
 Frc consts  --     0.3464                 0.4860                 0.4909
 IR Inten    --     5.1500                20.0744                16.6965

                    22                     23                     24
                     A                      A                      A
 Frequencies --   621.8483               769.5078               802.6112
 Red. masses --     5.0927                 3.4159                 1.5945
 Frc consts  --     1.1603                 1.1917                 0.6052
 IR Inten    --    12.8206                24.0700                 1.5292

                    25                     26                     27
                     A                      A                      A
 Frequencies --   806.6380               851.6752               881.9055
 Red. masses --     2.2273                 2.2929                 1.9255
 Frc consts  --     0.8539                 0.9799                 0.8823
 IR Inten    --     4.0211                 0.7512                 2.0617

                    28                     29                     30
                     A                      A                      A
 Frequencies --   909.0873               915.0570               939.2224
 Red. masses --     2.0705                 2.0735                 1.4433
 Frc consts  --     1.0082                 1.0229                 0.7502
 IR Inten    --     2.2111                 7.0099                 4.8777

                    31                     32                     33
                     A                      A                      A
 Frequencies --   957.1664               975.0289              1005.9529
 Red. masses --     2.8785                 2.1708                 1.8290
 Frc consts  --     1.5538                 1.2159                 1.0905
 IR Inten    --     4.0093                 7.2240                17.7277

                    34                     35                     36
                     A                      A                      A
 Frequencies --  1032.3270              1042.9114              1053.5682
 Red. masses --     3.6899                 2.1547                 2.6647
 Frc consts  --     2.3168                 1.3808                 1.7427
 IR Inten    --    32.5872                 2.1220                10.1763

                    37                     38                     39
                     A                      A                      A
 Frequencies --  1082.4494              1085.7238              1099.7141
 Red. masses --     1.3276                 1.4351                 2.0122
 Frc consts  --     0.9165                 0.9967                 1.4338
 IR Inten    --     1.9098                 9.0481                 1.1783

                    40                     41                     42
                     A                      A                      A
 Frequencies --  1119.9280              1131.3664              1175.0863
 Red. masses --     1.3915                 1.2220                 1.8021
 Frc consts  --     1.0283                 0.9216                 1.4661
 IR Inten    --     7.0016                 0.0417                 2.8705

                    43                     44                     45
                     A                      A                      A
 Frequencies --  1184.4939              1185.1355              1229.0062
 Red. masses --     1.8835                 1.4318                 1.4006
 Frc consts  --     1.5570                 1.1848                 1.2465
 IR Inten    --    86.4332                 2.2894                17.6021

                    46                     47                     48
                     A                      A                      A
 Frequencies --  1244.4241              1273.4430              1295.3660
 Red. masses --     1.2237                 4.2073                 1.2192
 Frc consts  --     1.1165                 4.0199                 1.2054
 IR Inten    --     5.3309                44.8189                83.3789

                    49                     50                     51
                     A                      A                      A
 Frequencies --  1300.2460              1307.1305              1322.2635
 Red. masses --     1.2467                 1.2519                 1.2491
 Frc consts  --     1.2418                 1.2603                 1.2868
 IR Inten    --     1.6345                12.9610                42.9679

                    52                     53                     54
                     A                      A                      A
 Frequencies --  1357.1912              1361.6162              1384.7348
 Red. masses --     1.3017                 1.2460                 1.3659
 Frc consts  --     1.4126                 1.3610                 1.5431
 IR Inten    --     4.2478                 0.8949                 6.3090

                    55                     56                     57
                     A                      A                      A
 Frequencies --  1390.5812              1401.3166              1406.3011
 Red. masses --     1.3571                 1.3854                 1.4477
 Frc consts  --     1.5462                 1.6029                 1.6869
 IR Inten    --    43.2823                29.6509                 0.0596

                    58                     59                     60
                     A                      A                      A
 Frequencies --  1408.2304              1446.4976              1447.4396
 Red. masses --     1.4028                 1.3514                 1.2783
 Frc consts  --     1.6390                 1.6660                 1.5779
 IR Inten    --     3.7941               146.9722               191.5518

                    61                     62                     63
                     A                      A                      A
 Frequencies --  1464.2609              1475.7735              1503.3464
 Red. masses --     1.1605                 1.9097                 1.2264
 Frc consts  --     1.4660                 2.4505                 1.6331
 IR Inten    --    16.1554                21.1614                13.8708

                    64                     65                     66
                     A                      A                      A
 Frequencies --  1507.1491              1509.3807              1515.9212
 Red. masses --     1.0381                 1.0904                 1.0847
 Frc consts  --     1.3893                 1.4636                 1.4687
 IR Inten    --     1.7740                 0.4288                11.0903

                    67                     68                     69
                     A                      A                      A
 Frequencies --  1516.7108              1517.4688              1524.0193
 Red. masses --     1.0917                 1.0948                 1.0876
 Frc consts  --     1.4796                 1.4853                 1.4884
 IR Inten    --    18.5001                 8.1316                13.8966

                    70                     71                     72
                     A                      A                      A
 Frequencies --  1527.3714              1529.4286              1536.1689
 Red. masses --     1.0422                 1.0995                 1.1026
 Frc consts  --     1.4325                 1.5153                 1.5330
 IR Inten    --    23.1382                 9.9016                 0.8787

                    73                     74                     75
                     A                      A                      A
 Frequencies --  1567.1786              1655.5341              1768.7641
 Red. masses --     1.4160                 1.1078                 5.2368
 Frc consts  --     2.0491                 1.7888                 9.6528
 IR Inten    --    40.3454               110.3630               262.2262

                    76                     77                     78
                     A                      A                      A
 Frequencies --  2971.0245              3022.5108              3027.5142
 Red. masses --     1.0717                 1.0654                 1.0652
 Frc consts  --     5.5737                 5.7346                 5.7525
 IR Inten    --   434.7713                 8.7370                21.7992

                    79                     80                     81
                     A                      A                      A
 Frequencies --  3038.1288              3045.1488              3051.6176
 Red. masses --     1.0720                 1.0676                 1.0646
 Frc consts  --     5.8301                 5.8329                 5.8413
 IR Inten    --     8.4077                 3.4161                35.9328

                    82                     83                     84
                     A                      A                      A
 Frequencies --  3064.8127              3070.5593              3071.3700
 Red. masses --     1.0365                 1.0369                 1.0894
 Frc consts  --     5.7362                 5.7599                 6.0546
 IR Inten    --    13.8835                24.1816                 6.7080

                    85                     86                     87
                     A                      A                      A
 Frequencies --  3080.3076              3091.2592              3105.3831
 Red. masses --     1.0983                 1.0950                 1.0939
 Frc consts  --     6.1399                 6.1650                 6.2154
 IR Inten    --    24.4089                34.2363                19.8492

                    88                     89                     90
                     A                      A                      A
 Frequencies --  3107.7375              3110.6113              3117.7301
 Red. masses --     1.0979                 1.1003                 1.0603
 Frc consts  --     6.2477                 6.2729                 6.0723
 IR Inten    --    18.4391                25.2335                10.2416

                    91                     92                     93
                     A                      A                      A
 Frequencies --  3124.0542              3131.8674              3173.3836
 Red. masses --     1.1061                 1.1065                 1.1094
 Frc consts  --     6.3606                 6.3943                 6.5823
 IR Inten    --     9.3238                 8.6694                 0.0055

                    94                     95                     96
                     A                      A                      A
 Frequencies --  3180.3242              3210.3054              3466.9358
 Red. masses --     1.0993                 1.1005                 1.0767
 Frc consts  --     6.5511                 6.6824                 7.6252
 IR Inten    --    16.3658                 0.2765                42.9652

 - Thermochemistry -
 -------------------
 Temperature   298.150 Kelvin.  Pressure   1.00000 Atm.
 Atom     1 has atomic number  6 and mass  12.00000

 Molecular mass:   185.16539 amu.
 Principal axes and moments of inertia in atomic units:
                           1         2         3
     Eigenvalues --   923.357615837.740066388.47831
           X            0.99997   0.00687  -0.00175
           Y           -0.00686   0.99996   0.00575
           Z            0.00179  -0.00574   0.99998
 This molecule is an asymmetric top.
 Rotational symmetry number  1.
 Warning -- assumption of classical behavior for rotation
           may cause significant error
 Rotational temperatures (Kelvin)      0.09380     0.01484     0.01356
 Rotational constants (GHZ):           1.95454     0.30915     0.28250
 Zero-point vibrational energy     828429.8 (Joules/Mol)
                                  197.99948 (Kcal/Mol)
 Warning -- explicit consideration of  21 degrees of freedom as
           vibrations may cause significant error
 Vibrational temperatures:     21.26    69.21    88.38   126.26   146.02
          (Kelvin)            169.97   204.66   306.25   312.16   338.24
                              382.26   413.67   470.14   564.08   574.43
                              635.30   642.47   676.58   746.21   804.51
                              821.75   894.70  1107.15  1154.78  1160.57
                             1225.37  1268.86  1307.97  1316.56  1351.33
                             1377.15  1402.85  1447.34  1485.29  1500.51
                             1515.85  1557.40  1562.11  1582.24  1611.32
                             1627.78  1690.69  1704.22  1705.14  1768.26
                             1790.45  1832.20  1863.74  1870.76  1880.67
                             1902.44  1952.69  1959.06  1992.32  2000.73
                             2016.18  2023.35  2026.13  2081.18  2082.54
                             2106.74  2123.31  2162.98  2168.45  2171.66
                             2181.07  2182.21  2183.30  2192.72  2197.54
                             2200.50  2210.20  2254.82  2381.94  2544.85
                             4274.64  4348.71  4355.91  4371.18  4381.28
                             4390.59  4409.58  4417.84  4419.01  4431.87
                             4447.63  4467.95  4471.34  4475.47  4485.71
                             4494.81  4506.05  4565.79  4575.77  4618.91
                             4988.14

 Zero-point correction=                           0.315532 (Hartree/Particle)
 Thermal correction to Energy=                    0.329899
 Thermal correction to Enthalpy=                  0.330843
 Thermal correction to Gibbs Free Energy=         0.272636
 Sum of electronic and zero-point Energies=           -577.931201
 Sum of electronic and thermal Energies=              -577.916835
 Sum of electronic and thermal Enthalpies=            -577.915890
 Sum of electronic and thermal Free Energies=         -577.974097

                     E (Thermal)             CV                S
                      KCal/Mol        Cal/Mol-Kelvin    Cal/Mol-Kelvin
 Total                  207.014             53.360            122.506
 Electronic               0.000              0.000              0.000
 Translational            0.889              2.981             41.554
 Rotational               0.889              2.981             31.910
 Vibrational            205.237             47.399             49.042
 Vibration     1          0.593              1.986              7.235
 Vibration     2          0.595              1.978              4.894
 Vibration     3          0.597              1.973              4.411
 Vibration     4          0.601              1.958              3.710
 Vibration     5          0.604              1.948              3.426
 Vibration     6          0.608              1.934              3.131
 Vibration     7          0.616              1.911              2.773
 Vibration     8          0.644              1.821              2.019
 Vibration     9          0.646              1.815              1.984
 Vibration    10          0.655              1.787              1.840
 Vibration    11          0.672              1.736              1.624
 Vibration    12          0.685              1.697              1.489
 Vibration    13          0.710              1.622              1.276
 Vibration    14          0.759              1.487              0.992
 Vibration    15          0.765              1.472              0.965
 Vibration    16          0.801              1.380              0.822
 Vibration    17          0.806              1.369              0.806
 Vibration    18          0.827              1.316              0.737
 Vibration    19          0.874              1.209              0.613
 Vibration    20          0.915              1.120              0.526
 Vibration    21          0.927              1.094              0.502

 Optimization completed.
    -- Stationary point found.
 Normal termination of Gaussian 09 at Fri Feb 16 19:30:21 2018.
