 Gaussian 09, Revision C.01,
 Gaussian 09:  AM64L-G09RevC.01 23-Sep-2011

 ----------------------------------------------------------------------
 #HF/6-31G* Geom=AllCheck Guess=Read Pop=(MK,ReadRadii) Integral=(Grid=
 UltraFine) iop(6/33=2)
 ----------------------------------------------------------------------

 Structure from the checkpoint file:  frag23-conf0.chk
 -----------------------------
 Optimization for frag23-conf0
 -----------------------------
 Charge =  0 Multiplicity = 1

                         Standard orientation:
 ---------------------------------------------------------------------
 Center     Atomic      Atomic             Coordinates (Angstroms)
 Number     Number       Type             X           Y           Z
 ---------------------------------------------------------------------
      1          6           0        1.592000   -0.405499   -0.218139
      2          6           0        3.969000   -0.668059    0.233368
      3          6           0        3.041374    1.609684    0.093279
      4          6           0       -3.296877    0.708366   -0.958175
      5          6           0        0.385836    0.520827   -0.468905
      6          7           0       -0.791343   -0.313373   -0.698285
      7          7           0        2.805519    0.177918   -0.003523
      8          8           0        1.431387   -1.624820   -0.240051
      9          8           0       -1.888732    0.981482    1.257082
     10          8           0       -2.708595   -1.351702    0.597374
     11         16           0       -2.173725   -0.036872    0.236075
     12          1           0        4.760316   -0.432594   -0.489247
     13          1           0        3.669870   -1.709195    0.124458
     14          1           0        4.361952   -0.504710    1.245215
     15          1           0        3.385453    1.876300    1.101604
     16          1           0        2.138925    2.180331   -0.120063
     17          1           0        3.816358    1.913962   -0.621983
     18          1           0       -4.231241    0.919810   -0.433084
     19          1           0       -2.855322    1.633818   -1.332664
     20          1           0       -3.463276   -0.000460   -1.770387
     21          1           0        0.222414    1.180739    0.390172
     22          1           0        0.581638    1.150235   -1.347074
     23          1           0       -0.527198   -1.301685   -0.615295
 ---------------------------------------------------------------------

 SCF Done:  E(RHF) =  -927.246349102     A.U. after   13 cycles

 The electronic state is 1-A.
 Alpha  occ. eigenvalues --  -92.20894 -20.55782 -20.55382 -20.54448 -15.61289
 Alpha  occ. eigenvalues --  -15.60224 -11.37569 -11.29698 -11.28849 -11.27591
 Alpha  occ. eigenvalues --  -11.26853  -9.18035  -6.86622  -6.86611  -6.86503
 Alpha  occ. eigenvalues --   -1.45094  -1.39832  -1.33350  -1.26298  -1.23146
 Alpha  occ. eigenvalues --   -1.04456  -1.00522  -0.98569  -0.92976  -0.82980
 Alpha  occ. eigenvalues --   -0.76147  -0.73441  -0.69964  -0.68275  -0.67275
 Alpha  occ. eigenvalues --   -0.66826  -0.65161  -0.62962  -0.61727  -0.59929
 Alpha  occ. eigenvalues --   -0.59182  -0.58634  -0.57383  -0.56551  -0.54530
 Alpha  occ. eigenvalues --   -0.53025  -0.50920  -0.48802  -0.46477  -0.45587
 Alpha  occ. eigenvalues --   -0.44156  -0.42845  -0.38699
 Alpha virt. eigenvalues --    0.17583   0.20963   0.22322   0.24367   0.25307
 Alpha virt. eigenvalues --    0.26034   0.26594   0.27777   0.28169   0.28745
 Alpha virt. eigenvalues --    0.29390   0.29776   0.30278   0.31247   0.31797

 Mulliken atomic charges:
              1
     1  C    0.784093
     2  C   -0.297493
     3  C   -0.289634
     4  C   -0.694171
     5  C   -0.232606
     6  N   -0.910022
     7  N   -0.664028
     8  O   -0.642369
     9  O   -0.703066
    10  O   -0.681840
    11  S    1.596090
    12  H    0.169119
    13  H    0.242510
    14  H    0.171849
    15  H    0.185571
    16  H    0.191095
    17  H    0.182125
    18  H    0.231187
    19  H    0.214758
    20  H    0.230117
    21  H    0.254235
    22  H    0.204352
    23  H    0.458127
 Sum of Mulliken atomic charges =   0.00000

 Dipole moment (field-independent basis, Debye):
    X=              3.4396    Y=              4.6365    Z=             -3.2795  Tot=              6.6395
 Quadrupole moment (field-independent basis, Debye-Ang):
   XX=            -60.5447   YY=            -79.1048   ZZ=            -77.0195
   XY=             -0.5572   XZ=             10.4295   YZ=             -2.3336

 Normal termination of Gaussian 09 at Sat Feb 17 21:00:00 2018.
