 Gaussian 09, Revision C.01,
 Gaussian 09:  AM64L-G09RevC.01 23-Sep-2011

 ---------------------------------------------------------
 #B3LYP/6-31G* Integral=(Grid=UltraFine) freq Opt pop=none
 ---------------------------------------------------------

 99/9=1/99;
 -----------------------------
 Optimization for frag23-conf0
 -----------------------------
 Charge =  0 Multiplicity = 1

 SCF Done:  E(RB3LYP) =  -931.056401887     A.U. after   14 cycles
 SCF Done:  E(RB3LYP) =  -931.061555497     A.U. after   13 cycles
 SCF Done:  E(RB3LYP) =  -931.062231340     A.U. after   12 cycles
 SCF Done:  E(RB3LYP) =  -931.062380597     A.U. after   11 cycles
 SCF Done:  E(RB3LYP) =  -931.062449507     A.U. after   12 cycles
 SCF Done:  E(RB3LYP) =  -931.062599699     A.U. after   11 cycles
 SCF Done:  E(RB3LYP) =  -931.062773930     A.U. after   12 cycles
 SCF Done:  E(RB3LYP) =  -931.063270142     A.U. after   14 cycles
 SCF Done:  E(RB3LYP) =  -931.063714802     A.U. after   14 cycles
 SCF Done:  E(RB3LYP) =  -931.062157048     A.U. after   13 cycles
 SCF Done:  E(RB3LYP) =  -931.064796450     A.U. after    8 cycles
 SCF Done:  E(RB3LYP) =  -931.064797156     A.U. after    9 cycles
 SCF Done:  E(RB3LYP) =  -931.064798765     A.U. after    9 cycles
 SCF Done:  E(RB3LYP) =  -931.064801150     A.U. after   10 cycles
 SCF Done:  E(RB3LYP) =  -931.064802832     A.U. after   10 cycles
 SCF Done:  E(RB3LYP) =  -931.064803083     A.U. after    8 cycles
 SCF Done:  E(RB3LYP) =  -931.064803156     A.U. after    7 cycles
 SCF Done:  E(RB3LYP) =  -931.064803246     A.U. after    8 cycles
 SCF Done:  E(RB3LYP) =  -931.064803276     A.U. after    7 cycles
 Optimization completed.
    -- Stationary point found.
 Normal termination of Gaussian 09 at Fri Feb 16 19:41:50 2018.

 --------------------------------------------------------------------
 #N Geom=AllCheck Guess=TCheck SCRF=Check GenChk RB3LYP/6-31G(d) Freq
 --------------------------------------------------------------------

 Structure from the checkpoint file:  frag23-conf0.chk
 -----------------------------
 Optimization for frag23-conf0
 -----------------------------
 Charge =  0 Multiplicity = 1

                         Standard orientation:
 ---------------------------------------------------------------------
 Center     Atomic      Atomic             Coordinates (Angstroms)
 Number     Number       Type             X           Y           Z
 ---------------------------------------------------------------------
      1          6           0        1.592000   -0.405499   -0.218139
      2          6           0        3.969000   -0.668059    0.233368
      3          6           0        3.041374    1.609684    0.093279
      4          6           0       -3.296877    0.708366   -0.958175
      5          6           0        0.385836    0.520827   -0.468905
      6          7           0       -0.791343   -0.313373   -0.698285
      7          7           0        2.805519    0.177918   -0.003523
      8          8           0        1.431387   -1.624820   -0.240051
      9          8           0       -1.888732    0.981482    1.257082
     10          8           0       -2.708595   -1.351702    0.597374
     11         16           0       -2.173725   -0.036872    0.236075
     12          1           0        4.760316   -0.432594   -0.489247
     13          1           0        3.669870   -1.709195    0.124458
     14          1           0        4.361952   -0.504710    1.245215
     15          1           0        3.385453    1.876300    1.101604
     16          1           0        2.138925    2.180331   -0.120063
     17          1           0        3.816358    1.913962   -0.621983
     18          1           0       -4.231241    0.919810   -0.433084
     19          1           0       -2.855322    1.633818   -1.332664
     20          1           0       -3.463276   -0.000460   -1.770387
     21          1           0        0.222414    1.180739    0.390172
     22          1           0        0.581638    1.150235   -1.347074
     23          1           0       -0.527198   -1.301685   -0.615295
 ---------------------------------------------------------------------

 SCF Done:  E(RB3LYP) =  -931.064803276     A.U. after    1 cycles

 Isotropic polarizability for W=    0.000000       92.42 Bohr**3.
 End of Minotr Frequency-dependent properties file   721 does not exist.

                     1                      2                      3
                     A                      A                      A
 Frequencies --    24.8602                35.7052                41.1429
 Red. masses --     2.2670                 3.8891                 1.8584
 Frc consts  --     0.0008                 0.0029                 0.0019
 IR Inten    --     2.1256                 3.1914                 0.9593

                     4                      5                      6
                     A                      A                      A
 Frequencies --    82.3114               109.0753               138.3468
 Red. masses --     4.0899                 1.8801                 1.4759
 Frc consts  --     0.0163                 0.0132                 0.0166
 IR Inten    --     0.6624                 1.3381                 0.7171

                     7                      8                      9
                     A                      A                      A
 Frequencies --   198.7934               220.9382               230.4939
 Red. masses --     3.1151                 1.0708                 3.3188
 Frc consts  --     0.0725                 0.0308                 0.1039
 IR Inten    --    12.8918                 0.3757                 0.0581

                    10                     11                     12
                     A                      A                      A
 Frequencies --   239.6347               261.9669               314.8977
 Red. masses --     2.1653                 4.9759                 3.6656
 Frc consts  --     0.0733                 0.2012                 0.2142
 IR Inten    --     6.3029                 2.3626                 1.0952

                    13                     14                     15
                     A                      A                      A
 Frequencies --   337.7901               393.7315               424.1214
 Red. masses --     4.1253                 4.0152                 3.2033
 Frc consts  --     0.2773                 0.3667                 0.3395
 IR Inten    --     6.7005                41.0724                14.2621

                    16                     17                     18
                     A                      A                      A
 Frequencies --   474.2262               488.9950               519.4988
 Red. masses --     4.6130                 5.4644                 4.4232
 Frc consts  --     0.6112                 0.7698                 0.7033
 IR Inten    --     8.6361                58.9978                24.3469

                    19                     20                     21
                     A                      A                      A
 Frequencies --   572.5073               614.4884               678.5624
 Red. masses --     3.6851                 4.7823                 2.8608
 Frc consts  --     0.7116                 1.0639                 0.7761
 IR Inten    --     4.7466                 3.3468                80.1989

                    22                     23                     24
                     A                      A                      A
 Frequencies --   736.5451               794.1252               940.8516
 Red. masses --     3.0126                 5.0679                 2.2973
 Frc consts  --     0.9629                 1.8830                 1.1981
 IR Inten    --    38.2319                74.3660               100.9554

                    25                     26                     27
                     A                      A                      A
 Frequencies --   979.5915               997.3824              1002.4036
 Red. masses --     2.8705                 1.3720                 1.4776
 Frc consts  --     1.6229                 0.8041                 0.8748
 IR Inten    --     2.9588                 0.4067                59.1775

                    28                     29                     30
                     A                      A                      A
 Frequencies --  1034.0692              1091.0023              1122.7171
 Red. masses --     2.0299                 1.3778                 6.1902
 Frc consts  --     1.2788                 0.9663                 4.5972
 IR Inten    --    23.6990                 5.0157               203.2230

                    31                     32                     33
                     A                      A                      A
 Frequencies --  1132.0807              1138.0421              1183.2832
 Red. masses --     5.0651                 1.2233                 2.0793
 Frc consts  --     3.8246                 0.9335                 1.7153
 IR Inten    --    78.4345                 0.6343                64.1768

                    34                     35                     36
                     A                      A                      A
 Frequencies --  1187.2013              1284.9028              1288.7272
 Red. masses --     1.4333                 1.0824                 4.9890
 Frc consts  --     1.1903                 1.0528                 4.8818
 IR Inten    --     8.2167                12.3746                48.6439

                    37                     38                     39
                     A                      A                      A
 Frequencies --  1314.4510              1341.5790              1382.3490
 Red. masses --     2.6308                 1.9373                 1.2163
 Frc consts  --     2.6781                 2.0544                 1.3694
 IR Inten    --   104.5535                83.0251                 8.8369

                    40                     41                     42
                     A                      A                      A
 Frequencies --  1431.1021              1455.7088              1473.9354
 Red. masses --     1.6673                 1.1629                 1.7960
 Frc consts  --     2.0119                 1.4519                 2.2989
 IR Inten    --   308.1264                 5.2040                25.5421

                    43                     44                     45
                     A                      A                      A
 Frequencies --  1485.2030              1487.5140              1500.4517
 Red. masses --     1.0493                 1.0794                 1.2117
 Frc consts  --     1.3637                 1.4072                 1.6073
 IR Inten    --     4.0873                 0.6528                12.8836

                    46                     47                     48
                     A                      A                      A
 Frequencies --  1511.3300              1524.3917              1530.1754
 Red. masses --     1.0410                 1.0715                 1.0513
 Frc consts  --     1.4010                 1.4670                 1.4503
 IR Inten    --     1.5840                12.0483                12.6673

                    49                     50                     51
                     A                      A                      A
 Frequencies --  1533.6740              1569.6724              1756.9946
 Red. masses --     1.0692                 1.2827                 8.6922
 Frc consts  --     1.4818                 1.8621                15.8096
 IR Inten    --     9.8521                31.0119               275.4603

                    52                     53                     54
                     A                      A                      A
 Frequencies --  3034.5474              3039.8307              3041.9309
 Red. masses --     1.0401                 1.0647                 1.0399
 Frc consts  --     5.6430                 5.7969                 5.6695
 IR Inten    --    23.2475                48.0389                82.0526

                    55                     56                     57
                     A                      A                      A
 Frequencies --  3080.9548              3086.9048              3089.5656
 Red. masses --     1.1043                 1.0295                 1.1051
 Frc consts  --     6.1760                 5.7802                 6.2149
 IR Inten    --    37.4783                 0.7949                23.2587

                    58                     59                     60
                     A                      A                      A
 Frequencies --  3096.0547              3184.1549              3188.7294
 Red. masses --     1.0975                 1.1066                 1.0945
 Frc consts  --     6.1983                 6.6102                 6.5567
 IR Inten    --     8.0429                 1.8923                11.1374

                    61                     62                     63
                     A                      A                      A
 Frequencies --  3195.9905              3197.1910              3416.3369
 Red. masses --     1.1078                 1.0966                 1.0730
 Frc consts  --     6.6668                 6.6045                 7.3785
 IR Inten    --     1.0249                 1.2121               166.8307

 - Thermochemistry -
 -------------------
 Temperature   298.150 Kelvin.  Pressure   1.00000 Atm.
 Atom     1 has atomic number  6 and mass  12.00000

 Molecular mass:   180.05686 amu.
 Principal axes and moments of inertia in atomic units:
                           1         2         3
     Eigenvalues --   805.952864038.389884372.76382
           X            0.99988   0.00197   0.01562
           Y           -0.00147   0.99949  -0.03180
           Z           -0.01567   0.03178   0.99937
 This molecule is an asymmetric top.
 Rotational symmetry number  1.
 Warning -- assumption of classical behavior for rotation
           may cause significant error
 Rotational temperatures (Kelvin)      0.10747     0.02145     0.01981
 Rotational constants (GHZ):           2.23926     0.44690     0.41272
 Zero-point vibrational energy     492058.4 (Joules/Mol)
                                  117.60477 (Kcal/Mol)
 Warning -- explicit consideration of  20 degrees of freedom as
           vibrations may cause significant error
 Vibrational temperatures:     35.77    51.37    59.20   118.43   156.93
          (Kelvin)            199.05   286.02   317.88   331.63   344.78
                              376.91   453.07   486.00   566.49   610.22
                              682.30   703.55   747.44   823.71   884.11
                              976.30  1059.72  1142.57  1353.67  1409.41
                             1435.01  1442.23  1487.79  1569.71  1615.34
                             1628.81  1637.39  1702.48  1708.12  1848.69
                             1854.19  1891.20  1930.23  1988.89  2059.03
                             2094.44  2120.66  2136.87  2140.20  2158.81
                             2174.46  2193.26  2201.58  2206.61  2258.41
                             2527.92  4366.03  4373.63  4376.65  4432.80
                             4441.36  4445.19  4454.53  4581.28  4587.86
                             4598.31  4600.04  4915.34

 Zero-point correction=                           0.187415 (Hartree/Particle)
 Thermal correction to Energy=                    0.200704
 Thermal correction to Enthalpy=                  0.201648
 Thermal correction to Gibbs Free Energy=         0.145576
 Sum of electronic and zero-point Energies=           -930.877388
 Sum of electronic and thermal Energies=              -930.864100
 Sum of electronic and thermal Enthalpies=            -930.863156
 Sum of electronic and thermal Free Energies=         -930.919227

                     E (Thermal)             CV                S
                      KCal/Mol        Cal/Mol-Kelvin    Cal/Mol-Kelvin
 Total                  125.943             45.991            118.013
 Electronic               0.000              0.000              0.000
 Translational            0.889              2.981             41.471
 Rotational               0.889              2.981             31.032
 Vibrational            124.166             40.029             45.510
 Vibration     1          0.593              1.985              6.202
 Vibration     2          0.594              1.982              5.484
 Vibration     3          0.594              1.981              5.203
 Vibration     4          0.600              1.961              3.835
 Vibration     5          0.606              1.942              3.285
 Vibration     6          0.614              1.915              2.827
 Vibration     7          0.637              1.842              2.144
 Vibration     8          0.648              1.809              1.951
 Vibration     9          0.652              1.794              1.875
 Vibration    10          0.657              1.780              1.806
 Vibration    11          0.669              1.742              1.649
 Vibration    12          0.702              1.645              1.336
 Vibration    13          0.718              1.600              1.223
 Vibration    14          0.761              1.484              0.986
 Vibration    15          0.786              1.418              0.878
 Vibration    16          0.831              1.307              0.726
 Vibration    17          0.845              1.274              0.686
 Vibration    18          0.874              1.207              0.611
 Vibration    19          0.929              1.091              0.499
 Vibration    20          0.974              1.001              0.425

 Normal termination of Gaussian 09 at Fri Feb 16 20:02:19 2018.
