 Gaussian 09, Revision C.01,
 Gaussian 09:  AM64L-G09RevC.01 23-Sep-2011

 ---------------------------------------------------------
 #B3LYP/6-31G* Integral=(Grid=UltraFine) freq Opt pop=none
 ---------------------------------------------------------

 99/9=1/99;
 -----------------------------
 Optimization for frag55-conf1
 -----------------------------
 Charge =  0 Multiplicity = 1

 SCF Done:  E(RB3LYP) =  -554.788495593     A.U. after   15 cycles
 SCF Done:  E(RB3LYP) =  -554.791319180     A.U. after   13 cycles
 SCF Done:  E(RB3LYP) =  -554.791690108     A.U. after   12 cycles
 SCF Done:  E(RB3LYP) =  -554.791784113     A.U. after   13 cycles
 SCF Done:  E(RB3LYP) =  -554.792033375     A.U. after   11 cycles
 SCF Done:  E(RB3LYP) =  -554.792080357     A.U. after   11 cycles
 SCF Done:  E(RB3LYP) =  -554.792098740     A.U. after   11 cycles
 SCF Done:  E(RB3LYP) =  -554.792117918     A.U. after   11 cycles
 SCF Done:  E(RB3LYP) =  -554.792150840     A.U. after   11 cycles
 SCF Done:  E(RB3LYP) =  -554.792171889     A.U. after   10 cycles
 SCF Done:  E(RB3LYP) =  -554.792189028     A.U. after   10 cycles
 SCF Done:  E(RB3LYP) =  -554.792201150     A.U. after   11 cycles
 SCF Done:  E(RB3LYP) =  -554.792205402     A.U. after   10 cycles
 SCF Done:  E(RB3LYP) =  -554.792205482     A.U. after    7 cycles
 SCF Done:  E(RB3LYP) =  -554.792205502     A.U. after    7 cycles
 Optimization completed.
    -- Stationary point found.
 Normal termination of Gaussian 09 at Fri Feb 16 22:01:07 2018.

 --------------------------------------------------------------------
 #N Geom=AllCheck Guess=TCheck SCRF=Check GenChk RB3LYP/6-31G(d) Freq
 --------------------------------------------------------------------

 Structure from the checkpoint file:  frag55-conf1.chk
 -----------------------------
 Optimization for frag55-conf1
 -----------------------------
 Charge =  0 Multiplicity = 1

                         Standard orientation:
 ---------------------------------------------------------------------
 Center     Atomic      Atomic             Coordinates (Angstroms)
 Number     Number       Type             X           Y           Z
 ---------------------------------------------------------------------
      1          6           0       -0.586495   -0.704808   -0.557625
      2          6           0       -1.359706    1.487322    0.059329
      3          6           0       -1.842780   -1.234072   -0.288266
      4          6           0       -2.628374    0.970345    0.331879
      5          6           0       -0.322856    0.664722   -0.386413
      6          6           0       -2.871149   -0.394288    0.159306
      7          6           0        2.912261   -0.258523    0.047172
      8          6           0        3.838662   -0.635842    1.194565
      9          6           0        1.058168    1.221714   -0.670633
     10          7           0        2.076505    0.797979    0.290239
     11          8           0        2.931016   -0.860136   -1.021393
     12          8           0       -4.088231   -0.968156    0.407402
     13          1           0        0.209427   -1.355295   -0.910743
     14          1           0       -1.183334    2.552734    0.193941
     15          1           0       -2.050873   -2.290844   -0.423978
     16          1           0       -3.425198    1.627729    0.676146
     17          1           0        3.589416   -1.646927    1.532991
     18          1           0        4.866016   -0.661743    0.820148
     19          1           0        3.787259    0.046930    2.048616
     20          1           0        1.418558    0.884866   -1.645862
     21          1           0        1.027371    2.317324   -0.681286
     22          1           0        2.003952    1.146557    1.235928
     23          1           0       -4.706790   -0.280276    0.698461
 ---------------------------------------------------------------------

 SCF Done:  E(RB3LYP) =  -554.792205502     A.U. after    1 cycles

 Isotropic polarizability for W=    0.000000      102.87 Bohr**3.
 End of Minotr Frequency-dependent properties file   721 does not exist.

                     1                      2                      3
                     A                      A                      A
 Frequencies --    30.6967                46.2895                52.5393
 Red. masses --     3.3372                 1.7819                 4.3887
 Frc consts  --     0.0019                 0.0022                 0.0071
 IR Inten    --     0.9200                 0.8777                12.4243

                     4                      5                      6
                     A                      A                      A
 Frequencies --    64.4874               137.6980               211.4712
 Red. masses --     1.9255                 4.7281                 6.2397
 Frc consts  --     0.0047                 0.0528                 0.1644
 IR Inten    --     0.4419                 2.4760                 5.3232

                     7                      8                      9
                     A                      A                      A
 Frequencies --   251.3731               326.9812               354.2071
 Red. masses --     5.4501                 2.3399                 2.8275
 Frc consts  --     0.2029                 0.1474                 0.2090
 IR Inten    --     0.9497                 2.6328                13.7583

                    10                     11                     12
                     A                      A                      A
 Frequencies --   363.9157               420.8105               424.9355
 Red. masses --     1.2329                 3.5010                 3.1545
 Frc consts  --     0.0962                 0.3653                 0.3356
 IR Inten    --   108.2301                11.4701                 0.6508

                    13                     14                     15
                     A                      A                      A
 Frequencies --   459.4692               465.1422               502.6002
 Red. masses --     1.7345                 2.0648                 3.5937
 Frc consts  --     0.2157                 0.2632                 0.5349
 IR Inten    --    81.9267                32.4265                15.6684

                    16                     17                     18
                     A                      A                      A
 Frequencies --   573.3241               612.5792               643.6355
 Red. masses --     3.1290                 3.1667                 2.6550
 Frc consts  --     0.6060                 0.7001                 0.6480
 IR Inten    --    26.7144                 0.3768                 3.1918

                    19                     20                     21
                     A                      A                      A
 Frequencies --   656.3364               726.2778               780.3275
 Red. masses --     5.9679                 4.2208                 3.8456
 Frc consts  --     1.5147                 1.3118                 1.3797
 IR Inten    --     1.1255                 0.7906                10.9548

                    22                     23                     24
                     A                      A                      A
 Frequencies --   814.8183               853.6481               859.4286
 Red. masses --     1.4501                 2.0334                 3.1414
 Frc consts  --     0.5672                 0.8730                 1.3671
 IR Inten    --    13.4849                20.8408                 3.1024

                    25                     26                     27
                     A                      A                      A
 Frequencies --   866.4600               930.0940               984.5161
 Red. masses --     2.5086                 1.3166                 1.3136
 Frc consts  --     1.1096                 0.6711                 0.7502
 IR Inten    --    17.1472                 0.5089                 0.6092

                    28                     29                     30
                     A                      A                      A
 Frequencies --  1000.7254              1031.4302              1039.2426
 Red. masses --     1.6571                 2.7099                 2.5277
 Frc consts  --     0.9777                 1.6986                 1.6084
 IR Inten    --     3.4971                 0.4279                 3.7649

                    31                     32                     33
                     A                      A                      A
 Frequencies --  1067.3132              1097.6750              1139.7683
 Red. masses --     1.7017                 3.1970                 1.3400
 Frc consts  --     1.1422                 2.2696                 1.0256
 IR Inten    --     8.0483                16.7594                18.0846

                    34                     35                     36
                     A                      A                      A
 Frequencies --  1206.2588              1208.7816              1234.7273
 Red. masses --     1.2885                 1.2885                 2.7249
 Frc consts  --     1.1046                 1.1093                 2.4476
 IR Inten    --   154.1083                49.8889                 3.0241

                    37                     38                     39
                     A                      A                      A
 Frequencies --  1267.1077              1289.9305              1309.2820
 Red. masses --     1.4675                 1.7285                 3.4386
 Frc consts  --     1.3882                 1.6945                 3.4730
 IR Inten    --    36.4663               142.8412                67.1294

                    40                     41                     42
                     A                      A                      A
 Frequencies --  1365.2655              1384.1295              1401.4652
 Red. masses --     1.5127                 2.4146                 1.3449
 Frc consts  --     1.6613                 2.7255                 1.5563
 IR Inten    --    19.0276                49.5646                12.9036

                    43                     44                     45
                     A                      A                      A
 Frequencies --  1425.7730              1488.7064              1500.4988
 Red. masses --     1.2642                 2.6327                 1.0624
 Frc consts  --     1.5141                 3.4377                 1.4093
 IR Inten    --    22.0424                38.0617                12.4823

                    46                     47                     48
                     A                      A                      A
 Frequencies --  1503.3610              1515.7243              1555.0625
 Red. masses --     1.0948                 1.0676                 1.9100
 Frc consts  --     1.4578                 1.4451                 2.7213
 IR Inten    --     4.8645                16.6127               174.8503

                    49                     50                     51
                     A                      A                      A
 Frequencies --  1567.3181              1649.1842              1677.0580
 Red. masses --     2.5742                 5.8568                 5.8274
 Frc consts  --     3.7257                 9.3853                 9.6565
 IR Inten    --   114.6508                23.8380                42.9933

                    52                     53                     54
                     A                      A                      A
 Frequencies --  1777.6610              3063.3838              3064.9795
 Red. masses --     8.9491                 1.0359                 1.0664
 Frc consts  --    16.6620                 5.7274                 5.9024
 IR Inten    --   211.4228                 8.6631                36.8866

                    55                     56                     57
                     A                      A                      A
 Frequencies --  3133.1754              3135.3539              3145.4144
 Red. masses --     1.0982                 1.1026                 1.1019
 Frc consts  --     6.3520                 6.3862                 6.4233
 IR Inten    --     0.6349                15.9633                11.0991

                    58                     59                     60
                     A                      A                      A
 Frequencies --  3162.0333              3180.8652              3198.7715
 Red. masses --     1.0871                 1.0938                 1.0888
 Frc consts  --     6.4038                 6.5205                 6.5637
 IR Inten    --    20.1142                22.8669                 1.4193

                    61                     62                     63
                     A                      A                      A
 Frequencies --  3216.5444              3619.2705              3749.3125
 Red. masses --     1.0942                 1.0775                 1.0659
 Frc consts  --     6.6701                 8.3156                 8.8284
 IR Inten    --     6.0848                14.0393                44.2317

 - Thermochemistry -
 -------------------
 Temperature   298.150 Kelvin.  Pressure   1.00000 Atm.
 Atom     1 has atomic number  6 and mass  12.00000

 Molecular mass:   165.07898 amu.
 Principal axes and moments of inertia in atomic units:
                           1         2         3
     Eigenvalues --   788.220094180.388964503.91035
           X            0.99992  -0.00593   0.01115
           Y            0.00605   0.99992  -0.01092
           Z           -0.01109   0.01098   0.99988
 This molecule is an asymmetric top.
 Rotational symmetry number  1.
 Warning -- assumption of classical behavior for rotation
           may cause significant error
 Rotational temperatures (Kelvin)      0.10989     0.02072     0.01923
 Rotational constants (GHZ):           2.28964     0.43172     0.40071
 Zero-point vibrational energy     495173.9 (Joules/Mol)
                                  118.34941 (Kcal/Mol)
 Warning -- explicit consideration of  17 degrees of freedom as
           vibrations may cause significant error
 Vibrational temperatures:     44.17    66.60    75.59    92.78   198.12
          (Kelvin)            304.26   361.67   470.45   509.62   523.59
                              605.45   611.39   661.07   669.24   723.13
                              824.88   881.36   926.05   944.32  1044.95
                             1122.72  1172.34  1228.21  1236.52  1246.64
                             1338.20  1416.50  1439.82  1484.00  1495.24
                             1535.62  1579.31  1639.87  1735.54  1739.16
                             1776.50  1823.08  1855.92  1883.76  1964.31
                             1991.45  2016.39  2051.37  2141.91  2158.88
                             2163.00  2180.79  2237.39  2255.02  2372.81
                             2412.91  2557.65  4407.52  4409.82  4507.93
                             4511.07  4525.54  4549.45  4576.55  4602.31
                             4627.88  5207.32  5394.42

 Zero-point correction=                           0.188602 (Hartree/Particle)
 Thermal correction to Energy=                    0.200331
 Thermal correction to Enthalpy=                  0.201276
 Thermal correction to Gibbs Free Energy=         0.149010
 Sum of electronic and zero-point Energies=           -554.603604
 Sum of electronic and thermal Energies=              -554.591874
 Sum of electronic and thermal Enthalpies=            -554.590930
 Sum of electronic and thermal Free Energies=         -554.643196

                     E (Thermal)             CV                S
                      KCal/Mol        Cal/Mol-Kelvin    Cal/Mol-Kelvin
 Total                  125.710             43.329            110.003
 Electronic               0.000              0.000              0.000
 Translational            0.889              2.981             41.212
 Rotational               0.889              2.981             31.074
 Vibrational            123.932             37.368             37.717
 Vibration     1          0.594              1.984              5.784
 Vibration     2          0.595              1.979              4.970
 Vibration     3          0.596              1.977              4.719
 Vibration     4          0.597              1.971              4.315
 Vibration     5          0.614              1.916              2.836
 Vibration     6          0.643              1.823              2.031
 Vibration     7          0.663              1.760              1.721
 Vibration     8          0.711              1.622              1.275
 Vibration     9          0.730              1.567              1.147
 Vibration    10          0.737              1.547              1.105
 Vibration    11          0.783              1.425              0.889
 Vibration    12          0.787              1.416              0.875
 Vibration    13          0.817              1.340              0.768
 Vibration    14          0.823              1.327              0.751
 Vibration    15          0.858              1.244              0.652
 Vibration    16          0.930              1.089              0.498
 Vibration    17          0.972              1.005              0.429

 Optimization completed.
    -- Stationary point found.
 Normal termination of Gaussian 09 at Fri Feb 16 22:19:31 2018.
