 Gaussian 09, Revision C.01,
 Gaussian 09:  AM64L-G09RevC.01 23-Sep-2011

 ----------------------------------------------------------------------
 #HF/6-31G* Geom=AllCheck Guess=Read Pop=(MK,ReadRadii) Integral=(Grid=
 UltraFine) iop(6/33=2)
 ----------------------------------------------------------------------

 Structure from the checkpoint file:  frag55-conf1.chk
 -----------------------------
 Optimization for frag55-conf1
 -----------------------------
 Charge =  0 Multiplicity = 1

                         Standard orientation:
 ---------------------------------------------------------------------
 Center     Atomic      Atomic             Coordinates (Angstroms)
 Number     Number       Type             X           Y           Z
 ---------------------------------------------------------------------
      1          6           0       -0.586495   -0.704808   -0.557625
      2          6           0       -1.359706    1.487322    0.059329
      3          6           0       -1.842780   -1.234072   -0.288266
      4          6           0       -2.628374    0.970345    0.331879
      5          6           0       -0.322856    0.664722   -0.386413
      6          6           0       -2.871149   -0.394288    0.159306
      7          6           0        2.912261   -0.258523    0.047172
      8          6           0        3.838662   -0.635842    1.194565
      9          6           0        1.058168    1.221714   -0.670633
     10          7           0        2.076505    0.797979    0.290239
     11          8           0        2.931016   -0.860136   -1.021393
     12          8           0       -4.088231   -0.968156    0.407402
     13          1           0        0.209427   -1.355295   -0.910743
     14          1           0       -1.183334    2.552734    0.193941
     15          1           0       -2.050873   -2.290844   -0.423978
     16          1           0       -3.425198    1.627729    0.676146
     17          1           0        3.589416   -1.646927    1.532991
     18          1           0        4.866016   -0.661743    0.820148
     19          1           0        3.787259    0.046930    2.048616
     20          1           0        1.418558    0.884866   -1.645862
     21          1           0        1.027371    2.317324   -0.681286
     22          1           0        2.003952    1.146557    1.235928
     23          1           0       -4.706790   -0.280276    0.698461
 ---------------------------------------------------------------------

 SCF Done:  E(RHF) =  -551.405109847     A.U. after   14 cycles

 The electronic state is 1-A.
 Alpha  occ. eigenvalues --  -20.59603 -20.51997 -15.58913 -11.35409 -11.30472
 Alpha  occ. eigenvalues --  -11.26882 -11.24514 -11.23901 -11.23749 -11.23674
 Alpha  occ. eigenvalues --  -11.23437 -11.22937  -1.40095  -1.37145  -1.22712
 Alpha  occ. eigenvalues --   -1.14599  -1.03816  -1.01712  -0.99660  -0.91817
 Alpha  occ. eigenvalues --   -0.84451  -0.80848  -0.78262  -0.72899  -0.69654
 Alpha  occ. eigenvalues --   -0.66237  -0.65454  -0.64444  -0.61675  -0.59874
 Alpha  occ. eigenvalues --   -0.58673  -0.58541  -0.57884  -0.56720  -0.55610
 Alpha  occ. eigenvalues --   -0.54208  -0.52504  -0.49819  -0.48501  -0.47390
 Alpha  occ. eigenvalues --   -0.41728  -0.38801  -0.33932  -0.30652
 Alpha virt. eigenvalues --    0.13672   0.15138   0.19788   0.21660   0.21781
 Alpha virt. eigenvalues --    0.24581   0.26568   0.28377   0.29892   0.31395
 Alpha virt. eigenvalues --    0.32220   0.33269   0.33895   0.35102   0.36022

 Mulliken atomic charges:
              1
     1  C   -0.207588
     2  C   -0.211900
     3  C   -0.244308
     4  C   -0.285911
     5  C   -0.001695
     6  C    0.410558
     7  C    0.762103
     8  C   -0.575829
     9  C   -0.164094
    10  N   -0.788268
    11  O   -0.633018
    12  O   -0.761366
    13  H    0.246894
    14  H    0.200161
    15  H    0.222442
    16  H    0.192333
    17  H    0.206226
    18  H    0.210497
    19  H    0.167446
    20  H    0.236262
    21  H    0.182574
    22  H    0.380981
    23  H    0.455499
 Sum of Mulliken atomic charges =   0.00000

 Dipole moment (field-independent basis, Debye):
    X=             -0.9141    Y=              3.2634    Z=              3.5026  Tot=              4.8738
 Quadrupole moment (field-independent basis, Debye-Ang):
   XX=            -65.5556   YY=            -68.5134   ZZ=            -72.5924
   XY=             -2.6285   XZ=              6.5423   YZ=             -0.0624

 Normal termination of Gaussian 09 at Sat Feb 17 21:07:05 2018.
