 Gaussian 09, Revision C.01,
 Gaussian 09:  AM64L-G09RevC.01 23-Sep-2011

 ---------------------------------------------------------
 #B3LYP/6-31G* Integral=(Grid=UltraFine) freq Opt pop=none
 ---------------------------------------------------------

 99/9=1/99;
 -----------------------------
 Optimization for frag41-conf0
 -----------------------------
 Charge =  1 Multiplicity = 1

 SCF Done:  E(RB3LYP) =  -864.858234173     A.U. after   15 cycles
 SCF Done:  E(RB3LYP) =  -864.869011202     A.U. after   13 cycles
 SCF Done:  E(RB3LYP) =  -864.871541717     A.U. after   15 cycles
 SCF Done:  E(RB3LYP) =  -864.872702343     A.U. after   12 cycles
 SCF Done:  E(RB3LYP) =  -864.873615780     A.U. after   13 cycles
 SCF Done:  E(RB3LYP) =  -864.874005888     A.U. after   13 cycles
 SCF Done:  E(RB3LYP) =  -864.873821638     A.U. after   12 cycles
 SCF Done:  E(RB3LYP) =  -864.874489693     A.U. after   12 cycles
 SCF Done:  E(RB3LYP) =  -864.874664122     A.U. after   11 cycles
 SCF Done:  E(RB3LYP) =  -864.874783717     A.U. after   11 cycles
 SCF Done:  E(RB3LYP) =  -864.874930385     A.U. after    8 cycles
 SCF Done:  E(RB3LYP) =  -864.874931301     A.U. after    9 cycles
 SCF Done:  E(RB3LYP) =  -864.874931682     A.U. after    8 cycles
 SCF Done:  E(RB3LYP) =  -864.874931993     A.U. after    7 cycles
 SCF Done:  E(RB3LYP) =  -864.874932461     A.U. after    9 cycles
 SCF Done:  E(RB3LYP) =  -864.874932821     A.U. after    7 cycles
 SCF Done:  E(RB3LYP) =  -864.874933014     A.U. after    7 cycles
 SCF Done:  E(RB3LYP) =  -864.874933058     A.U. after    7 cycles
 SCF Done:  E(RB3LYP) =  -864.874933070     A.U. after    6 cycles
 Optimization completed.
    -- Stationary point found.
 Normal termination of Gaussian 09 at Fri Feb 16 22:44:06 2018.

 --------------------------------------------------------------------
 #N Geom=AllCheck Guess=TCheck SCRF=Check GenChk RB3LYP/6-31G(d) Freq
 --------------------------------------------------------------------

 Structure from the checkpoint file:  frag41-conf0.chk
 -----------------------------
 Optimization for frag41-conf0
 -----------------------------
 Charge =  1 Multiplicity = 1

                         Standard orientation:
 ---------------------------------------------------------------------
 Center     Atomic      Atomic             Coordinates (Angstroms)
 Number     Number       Type             X           Y           Z
 ---------------------------------------------------------------------
      1          6           0       -3.186825   -0.354270    0.021798
      2          6           0        1.327674   -1.526755   -0.486067
      3          6           0        3.211626    3.004203   -0.126980
      4          6           0        2.932247    2.417639    1.263258
      5          6           0        1.961404    2.945062   -1.014965
      6          6           0        2.371051    0.988731    1.173880
      7          6           0        1.402055    1.515341   -1.112548
      8          6           0        1.105785    0.939426    0.288893
      9          6           0       -5.576211   -0.486838    0.413806
     10          6           0       -4.530337    1.737727    0.107747
     11          6           0        3.038143   -3.232865   -0.637395
     12          6           0        2.413027   -2.414924    1.601348
     13          6           0       -1.903386    0.480829   -0.241203
     14          6           0        0.476300   -0.479068    0.282729
     15          7           0       -4.354081    0.288547    0.172193
     16          7           0        2.219102   -2.307958    0.156717
     17          7           0       -0.828950   -0.523089   -0.495949
     18          8           0       -3.043757   -1.582306    0.088864
     19          8           0        1.134971   -1.570225   -1.709359
     20          1           0        3.561630    4.038529   -0.036440
     21          1           0        4.024633    2.439697   -0.605197
     22          1           0        3.845537    2.410671    1.868710
     23          1           0        2.211874    3.056297    1.794378
     24          1           0        1.189551    3.612460   -0.604143
     25          1           0        2.187714    3.314099   -2.021497
     26          1           0        3.137780    0.326530    0.749940
     27          1           0        2.143962    0.616568    2.181299
     28          1           0        0.496964    1.522097   -1.736189
     29          1           0        2.121841    0.871201   -1.630947
     30          1           0        0.369694    1.599172    0.773631
     31          1           0       -6.005124   -0.208530    1.382237
     32          1           0       -5.332029   -1.547245    0.411245
     33          1           0       -6.306976   -0.273498   -0.373284
     34          1           0       -5.171830    2.002823   -0.740234
     35          1           0       -3.578652    2.257770   -0.000658
     36          1           0       -5.008744    2.090532    1.027666
     37          1           0        4.093113   -3.094190   -0.380358
     38          1           0        2.883192   -3.030981   -1.695009
     39          1           0        2.752996   -4.267465   -0.416169
     40          1           0        2.241269   -3.450766    1.914609
     41          1           0        1.733295   -1.770215    2.154054
     42          1           0        3.439752   -2.139420    1.865131
     43          1           0       -1.992118    1.142426   -1.103918
     44          1           0       -1.647200    1.081499    0.633239
     45          1           0        0.224610   -0.780096    1.301337
     46          1           0       -1.330478   -1.427623   -0.301786
     47          1           0       -0.523798   -0.580025   -1.484228
 ---------------------------------------------------------------------

 SCF Done:  E(RB3LYP) =  -864.874933070     A.U. after    1 cycles

 Isotropic polarizability for W=    0.000000      172.40 Bohr**3.
 End of Minotr Frequency-dependent properties file   721 does not exist.

                     1                      2                      3
                     A                      A                      A
 Frequencies --    15.4903                31.3577                47.8407
 Red. masses --     3.2195                 3.6639                 3.0296
 Frc consts  --     0.0005                 0.0021                 0.0041
 IR Inten    --     1.9954                 3.6602                 1.5305

                     4                      5                      6
                     A                      A                      A
 Frequencies --    51.0358                63.3638                81.0592
 Red. masses --     3.3816                 2.8072                 1.3395
 Frc consts  --     0.0052                 0.0066                 0.0052
 IR Inten    --     2.0674                 0.2491                 0.2859

                     7                      8                      9
                     A                      A                      A
 Frequencies --    86.5993               101.8884               105.1111
 Red. masses --     1.4607                 1.3013                 1.5472
 Frc consts  --     0.0065                 0.0080                 0.0101
 IR Inten    --     1.1543                 1.1582                 1.3534

                    10                     11                     12
                     A                      A                      A
 Frequencies --   115.8520               131.1909               135.2202
 Red. masses --     1.7177                 2.1382                 2.4758
 Frc consts  --     0.0136                 0.0217                 0.0267
 IR Inten    --     0.9473                 3.2454                 2.4311

                    13                     14                     15
                     A                      A                      A
 Frequencies --   156.1577               183.9875               190.0057
 Red. masses --     3.5456                 2.6736                 3.4225
 Frc consts  --     0.0509                 0.0533                 0.0728
 IR Inten    --     0.5989                 4.3668                 2.6008

                    16                     17                     18
                     A                      A                      A
 Frequencies --   215.3510               233.0042               257.4331
 Red. masses --     3.7680                 2.2072                 2.8023
 Frc consts  --     0.1030                 0.0706                 0.1094
 IR Inten    --     0.3376                 0.1460                 0.5359

                    19                     20                     21
                     A                      A                      A
 Frequencies --   262.6797               274.5760               288.3695
 Red. masses --     2.4494                 2.6190                 2.8713
 Frc consts  --     0.0996                 0.1163                 0.1407
 IR Inten    --     4.7445                 7.0977                 5.7087

                    22                     23                     24
                     A                      A                      A
 Frequencies --   332.8385               364.4570               395.5837
 Red. masses --     1.8660                 3.2158                 2.6453
 Frc consts  --     0.1218                 0.2517                 0.2439
 IR Inten    --     0.4200                 6.1695                 2.4775

                    25                     26                     27
                     A                      A                      A
 Frequencies --   417.3963               431.7624               440.8325
 Red. masses --     2.9827                 3.8314                 2.9789
 Frc consts  --     0.3062                 0.4208                 0.3411
 IR Inten    --     4.6686                96.8985                 5.6006

                    28                     29                     30
                     A                      A                      A
 Frequencies --   448.3437               469.3042               506.7057
 Red. masses --     3.0667                 2.2552                 2.7597
 Frc consts  --     0.3632                 0.2926                 0.4175
 IR Inten    --     7.0632                 7.2526                11.6091

                    31                     32                     33
                     A                      A                      A
 Frequencies --   537.7056               567.4870               598.7393
 Red. masses --     2.7712                 2.9785                 3.2827
 Frc consts  --     0.4721                 0.5651                 0.6934
 IR Inten    --    53.5321                23.3106                20.0100

                    34                     35                     36
                     A                      A                      A
 Frequencies --   624.0246               633.7959               744.0893
 Red. masses --     4.8405                 4.3156                 4.5549
 Frc consts  --     1.1106                 1.0214                 1.4859
 IR Inten    --     6.3829                 5.5021                11.0497

                    37                     38                     39
                     A                      A                      A
 Frequencies --   763.6167               795.6125               803.2268
 Red. masses --     3.3895                 4.2955                 1.4755
 Frc consts  --     1.1645                 1.6020                 0.5609
 IR Inten    --    10.8876                20.6070                 0.5427

                    40                     41                     42
                     A                      A                      A
 Frequencies --   825.6757               852.5189               900.4410
 Red. masses --     2.3614                 2.6003                 2.3405
 Frc consts  --     0.9485                 1.1135                 1.1181
 IR Inten    --     0.5640                 2.9074                 6.8614

                    43                     44                     45
                     A                      A                      A
 Frequencies --   911.7328               925.3607               935.8327
 Red. masses --     1.8793                 1.7907                 1.8206
 Frc consts  --     0.9204                 0.9035                 0.9394
 IR Inten    --     7.8217                 1.6601                16.6682

                    46                     47                     48
                     A                      A                      A
 Frequencies --   948.7237               968.1289               972.9683
 Red. masses --     2.1742                 2.8548                 2.8035
 Frc consts  --     1.1530                 1.5765                 1.5637
 IR Inten    --     7.9485                 1.1708                 4.6162

                    49                     50                     51
                     A                      A                      A
 Frequencies --  1008.8014              1041.7824              1046.6063
 Red. masses --     2.2884                 2.0997                 1.9884
 Frc consts  --     1.3721                 1.3427                 1.2833
 IR Inten    --    24.8764                 1.6963                 0.7423

                    52                     53                     54
                     A                      A                      A
 Frequencies --  1060.0294              1076.4752              1083.0672
 Red. masses --     2.6785                 2.3748                 1.4906
 Frc consts  --     1.7733                 1.6214                 1.0302
 IR Inten    --     3.4379                 8.9092                10.1391

                    55                     56                     57
                     A                      A                      A
 Frequencies --  1086.4053              1091.1052              1103.7063
 Red. masses --     1.4348                 1.4831                 1.6818
 Frc consts  --     0.9977                 1.0403                 1.2070
 IR Inten    --     8.2267                 0.7252                 0.5254

                    58                     59                     60
                     A                      A                      A
 Frequencies --  1123.9939              1132.1076              1132.9214
 Red. masses --     1.6794                 1.2230                 1.2260
 Frc consts  --     1.2501                 0.9235                 0.9271
 IR Inten    --     8.5147                 0.0938                 0.4762

                    61                     62                     63
                     A                      A                      A
 Frequencies --  1167.6882              1174.3879              1183.2799
 Red. masses --     2.0922                 1.7699                 1.5477
 Frc consts  --     1.6808                 1.4382                 1.2768
 IR Inten    --     3.7341                74.5882                49.0186

                    64                     65                     66
                     A                      A                      A
 Frequencies --  1184.0582              1185.9114              1213.6351
 Red. masses --     1.4053                 1.6377                 1.3088
 Frc consts  --     1.1608                 1.3570                 1.1358
 IR Inten    --     4.6969                34.5136                 4.1775

                    67                     68                     69
                     A                      A                      A
 Frequencies --  1243.7336              1263.9353              1269.0487
 Red. masses --     1.3847                 1.4297                 3.3514
 Frc consts  --     1.2620                 1.3457                 3.1801
 IR Inten    --    16.3528                 3.3938                61.2903

                    70                     71                     72
                     A                      A                      A
 Frequencies --  1275.1534              1303.1192              1306.5558
 Red. masses --     4.3341                 1.2856                 1.2697
 Frc consts  --     4.1522                 1.2862                 1.2770
 IR Inten    --    46.3132                22.2023                20.0076

                    73                     74                     75
                     A                      A                      A
 Frequencies --  1311.3674              1326.6450              1344.5359
 Red. masses --     1.2544                 1.3118                 1.3008
 Frc consts  --     1.2710                 1.3603                 1.3855
 IR Inten    --     6.0844                 4.3470                36.6611

                    76                     77                     78
                     A                      A                      A
 Frequencies --  1357.7688              1367.2190              1387.2891
 Red. masses --     1.2772                 1.2584                 1.3811
 Frc consts  --     1.3872                 1.3860                 1.5661
 IR Inten    --    20.3875                 7.0652                 0.4426

                    79                     80                     81
                     A                      A                      A
 Frequencies --  1391.9309              1405.5405              1406.1565
 Red. masses --     1.3498                 1.4553                 1.4528
 Frc consts  --     1.5408                 1.6939                 1.6925
 IR Inten    --     2.4221                 4.3358                22.3349

                    82                     83                     84
                     A                      A                      A
 Frequencies --  1421.4209              1425.7650              1450.5061
 Red. masses --     1.3777                 1.4339                 1.4109
 Frc consts  --     1.6400                 1.7174                 1.7489
 IR Inten    --    32.5867               110.4553               482.5940

                    85                     86                     87
                     A                      A                      A
 Frequencies --  1461.2792              1463.7210              1476.6637
 Red. masses --     1.1622                 1.1645                 1.8358
 Frc consts  --     1.4621                 1.4700                 2.3585
 IR Inten    --    17.1851                18.5683                 3.0991

                    88                     89                     90
                     A                      A                      A
 Frequencies --  1479.0007              1501.4819              1502.9992
 Red. masses --     1.8707                 1.1700                 1.2117
 Frc consts  --     2.4110                 1.5540                 1.6127
 IR Inten    --    23.3931                13.6619                15.2688

                    91                     92                     93
                     A                      A                      A
 Frequencies --  1506.0035              1508.4214              1510.6690
 Red. masses --     1.0685                 1.0512                 1.0854
 Frc consts  --     1.4279                 1.4092                 1.4594
 IR Inten    --     7.8069                 1.6105                 2.5576

                    94                     95                     96
                     A                      A                      A
 Frequencies --  1515.5785              1516.3011              1517.7546
 Red. masses --     1.0888                 1.0914                 1.0914
 Frc consts  --     1.4735                 1.4784                 1.4812
 IR Inten    --    20.0061                25.1356                 3.4576

                    97                     98                     99
                     A                      A                      A
 Frequencies --  1523.0761              1525.4471              1527.9438
 Red. masses --     1.0831                 1.0810                 1.0438
 Frc consts  --     1.4803                 1.4821                 1.4358
 IR Inten    --    16.3027                11.7910                20.7243

                   100                    101                    102
                     A                      A                      A
 Frequencies --  1530.0435              1531.6539              1536.4728
 Red. masses --     1.0932                 1.0570                 1.0966
 Frc consts  --     1.5079                 1.4610                 1.5253
 IR Inten    --    13.4769                13.8165                 1.3034

                   103                    104                    105
                     A                      A                      A
 Frequencies --  1564.6404              1567.9678              1675.0906
 Red. masses --     1.3759                 1.4138                 1.1094
 Frc consts  --     1.9846                 2.0478                 1.8341
 IR Inten    --    38.8419                51.6979               120.6820

                   106                    107                    108
                     A                      A                      A
 Frequencies --  1732.1313              1767.4903              3006.5079
 Red. masses --     6.4772                 5.2422                 1.0817
 Frc consts  --    11.4498                 9.6489                 5.7608
 IR Inten    --   262.7052               267.8976                14.7798

                   109                    110                    111
                     A                      A                      A
 Frequencies --  3024.8756              3031.4827              3033.2509
 Red. masses --     1.0702                 1.0701                 1.0680
 Frc consts  --     5.7694                 5.7941                 5.7895
 IR Inten    --    39.8646                47.7398               153.8266

                   112                    113                    114
                     A                      A                      A
 Frequencies --  3035.6711              3037.6778              3041.9079
 Red. masses --     1.0704                 1.0614                 1.0640
 Frc consts  --     5.8118                 5.7707                 5.8006
 IR Inten    --   285.3508                72.8262                40.0804

                   115                    116                    117
                     A                      A                      A
 Frequencies --  3062.5386              3062.6972              3067.3016
 Red. masses --     1.0383                 1.0371                 1.0386
 Frc consts  --     5.7376                 5.7315                 5.7573
 IR Inten    --    10.8894                18.1941                37.2639

                   118                    119                    120
                     A                      A                      A
 Frequencies --  3068.5694              3079.7483              3089.2459
 Red. masses --     1.0372                 1.1020                 1.0945
 Frc consts  --     5.7540                 6.1583                 6.1542
 IR Inten    --    21.1183                31.1538                16.7233

                   121                    122                    123
                     A                      A                      A
 Frequencies --  3094.7899              3096.3222              3100.3448
 Red. masses --     1.0955                 1.0955                 1.1003
 Frc consts  --     6.1820                 6.1880                 6.2311
 IR Inten    --    22.5054                24.1106                52.1560

                   124                    125                    126
                     A                      A                      A
 Frequencies --  3118.8252              3119.3747              3121.0214
 Red. masses --     1.1053                 1.0613                 1.1050
 Frc consts  --     6.3345                 6.0844                 6.3417
 IR Inten    --    13.2223                21.4445                10.7036

                   127                    128                    129
                     A                      A                      A
 Frequencies --  3126.2901              3128.2652              3128.7241
 Red. masses --     1.1055                 1.0871                 1.1063
 Frc consts  --     6.3657                 6.2677                 6.3805
 IR Inten    --    10.1879                 9.7698                10.2588

                   130                    131                    132
                     A                      A                      A
 Frequencies --  3173.8121              3181.2911              3202.6559
 Red. masses --     1.1084                 1.0992                 1.0960
 Frc consts  --     6.5781                 6.5546                 6.6233
 IR Inten    --     0.6879                17.1100                14.9541

                   133                    134                    135
                     A                      A                      A
 Frequencies --  3209.3859              3211.8118              3295.7031
 Red. masses --     1.1002                 1.0995                 1.0751
 Frc consts  --     6.6765                 6.6828                 6.8803
 IR Inten    --     0.3191                 0.5601               193.5015

 - Thermochemistry -
 -------------------
 Temperature   298.150 Kelvin.  Pressure   1.00000 Atm.
 Atom     1 has atomic number  6 and mass  12.00000

 Molecular mass:   270.21815 amu.
 Principal axes and moments of inertia in atomic units:
                           1         2         3
     Eigenvalues --  3972.833678545.03348**********
           X            0.99994  -0.01037   0.00336
           Y            0.01041   0.99988  -0.01185
           Z           -0.00324   0.01188   0.99992
 This molecule is an asymmetric top.
 Rotational symmetry number  1.
 Warning -- assumption of classical behavior for rotation
           may cause significant error
 Rotational temperatures (Kelvin)      0.02180     0.01014     0.00784
 Rotational constants (GHZ):           0.45427     0.21120     0.16329
 Zero-point vibrational energy    1123832.1 (Joules/Mol)
                                  268.60232 (Kcal/Mol)
 Warning -- explicit consideration of  33 degrees of freedom as
           vibrations may cause significant error
 Vibrational temperatures:     22.29    45.12    68.83    73.43    91.17
          (Kelvin)            116.63   124.60   146.59   151.23   166.68
                              188.75   194.55   224.68   264.72   273.38
                              309.84   335.24   370.39   377.94   395.05
                              414.90   478.88   524.37   569.16   600.54
                              621.21   634.26   645.07   675.22   729.04
                              773.64   816.49   861.45   897.83   911.89
                             1070.58  1098.67  1144.71  1155.66  1187.96
                             1226.58  1295.53  1311.78  1331.39  1346.45
                             1365.00  1392.92  1399.88  1451.44  1498.89
                             1505.83  1525.14  1548.81  1558.29  1563.09
                             1569.86  1587.99  1617.17  1628.85  1630.02
                             1680.04  1689.68  1702.47  1703.59  1706.26
                             1746.15  1789.45  1818.52  1825.88  1834.66
                             1874.90  1879.84  1886.76  1908.74  1934.48
                             1953.52  1967.12  1996.00  2002.68  2022.26
                             2023.14  2045.11  2051.36  2086.95  2102.45
                             2105.97  2124.59  2127.95  2160.29  2162.48
                             2166.80  2170.28  2173.51  2180.58  2181.62
                             2183.71  2191.36  2194.78  2198.37  2201.39
                             2203.71  2210.64  2251.17  2255.95  2410.08
                             2492.15  2543.02  4325.69  4352.12  4361.62
                             4364.17  4367.65  4370.54  4376.62  4406.30
                             4406.53  4413.16  4414.98  4431.07  4444.73
                             4452.71  4454.91  4460.70  4487.29  4488.08
                             4490.45  4498.03  4500.87  4501.53  4566.40
                             4577.16  4607.90  4617.58  4621.08  4741.78

 Zero-point correction=                           0.428045 (Hartree/Particle)
 Thermal correction to Energy=                    0.449808
 Thermal correction to Enthalpy=                  0.450752
 Thermal correction to Gibbs Free Energy=         0.375287
 Sum of electronic and zero-point Energies=           -864.446888
 Sum of electronic and thermal Energies=              -864.425125
 Sum of electronic and thermal Enthalpies=            -864.424181
 Sum of electronic and thermal Free Energies=         -864.499646

                     E (Thermal)             CV                S
                      KCal/Mol        Cal/Mol-Kelvin    Cal/Mol-Kelvin
 Total                  282.259             79.404            158.830
 Electronic               0.000              0.000              0.000
 Translational            0.889              2.981             42.681
 Rotational               0.889              2.981             34.283
 Vibrational            280.481             73.442             81.866
 Vibration     1          0.593              1.986              7.142
 Vibration     2          0.594              1.983              5.742
 Vibration     3          0.595              1.978              4.905
 Vibration     4          0.595              1.977              4.777
 Vibration     5          0.597              1.972              4.350
 Vibration     6          0.600              1.962              3.865
 Vibration     7          0.601              1.959              3.735
 Vibration     8          0.604              1.948              3.418
 Vibration     9          0.605              1.945              3.357
 Vibration    10          0.608              1.936              3.168
 Vibration    11          0.612              1.922              2.929
 Vibration    12          0.613              1.918              2.870
 Vibration    13          0.620              1.896              2.596
 Vibration    14          0.631              1.862              2.288
 Vibration    15          0.633              1.854              2.228
 Vibration    16          0.645              1.818              1.998
 Vibration    17          0.654              1.790              1.856
 Vibration    18          0.667              1.750              1.679
 Vibration    19          0.670              1.741              1.644
 Vibration    20          0.677              1.720              1.567
 Vibration    21          0.685              1.695              1.484
 Vibration    22          0.715              1.610              1.246
 Vibration    23          0.738              1.545              1.103
 Vibration    24          0.762              1.480              0.979
 Vibration    25          0.780              1.432              0.901
 Vibration    26          0.793              1.401              0.853
 Vibration    27          0.801              1.381              0.824
 Vibration    28          0.807              1.365              0.801
 Vibration    29          0.826              1.318              0.740
 Vibration    30          0.862              1.235              0.642
 Vibration    31          0.893              1.167              0.570
 Vibration    32          0.923              1.102              0.509
 Vibration    33          0.957              1.034              0.452

 Normal termination of Gaussian 09 at Sat Feb 17 00:36:13 2018.
