 Gaussian 09, Revision C.01,
 Gaussian 09:  AM64L-G09RevC.01 23-Sep-2011

 ----------------------------------------------------------------------
 #HF/6-31G* Geom=AllCheck Guess=Read Pop=(MK,ReadRadii) Integral=(Grid=
 UltraFine) iop(6/33=2)
 ----------------------------------------------------------------------

 Structure from the checkpoint file:  frag41-conf0.chk
 -----------------------------
 Optimization for frag41-conf0
 -----------------------------
 Charge =  1 Multiplicity = 1

                         Standard orientation:
 ---------------------------------------------------------------------
 Center     Atomic      Atomic             Coordinates (Angstroms)
 Number     Number       Type             X           Y           Z
 ---------------------------------------------------------------------
      1          6           0       -3.186825   -0.354270    0.021798
      2          6           0        1.327674   -1.526755   -0.486067
      3          6           0        3.211626    3.004203   -0.126980
      4          6           0        2.932247    2.417639    1.263258
      5          6           0        1.961404    2.945062   -1.014965
      6          6           0        2.371051    0.988731    1.173880
      7          6           0        1.402055    1.515341   -1.112548
      8          6           0        1.105785    0.939426    0.288893
      9          6           0       -5.576211   -0.486838    0.413806
     10          6           0       -4.530337    1.737727    0.107747
     11          6           0        3.038143   -3.232865   -0.637395
     12          6           0        2.413027   -2.414924    1.601348
     13          6           0       -1.903386    0.480829   -0.241203
     14          6           0        0.476300   -0.479068    0.282729
     15          7           0       -4.354081    0.288547    0.172193
     16          7           0        2.219102   -2.307958    0.156717
     17          7           0       -0.828950   -0.523089   -0.495949
     18          8           0       -3.043757   -1.582306    0.088864
     19          8           0        1.134971   -1.570225   -1.709359
     20          1           0        3.561630    4.038529   -0.036440
     21          1           0        4.024633    2.439697   -0.605197
     22          1           0        3.845537    2.410671    1.868710
     23          1           0        2.211874    3.056297    1.794378
     24          1           0        1.189551    3.612460   -0.604143
     25          1           0        2.187714    3.314099   -2.021497
     26          1           0        3.137780    0.326530    0.749940
     27          1           0        2.143962    0.616568    2.181299
     28          1           0        0.496964    1.522097   -1.736189
     29          1           0        2.121841    0.871201   -1.630947
     30          1           0        0.369694    1.599172    0.773631
     31          1           0       -6.005124   -0.208530    1.382237
     32          1           0       -5.332029   -1.547245    0.411245
     33          1           0       -6.306976   -0.273498   -0.373284
     34          1           0       -5.171830    2.002823   -0.740234
     35          1           0       -3.578652    2.257770   -0.000658
     36          1           0       -5.008744    2.090532    1.027666
     37          1           0        4.093113   -3.094190   -0.380358
     38          1           0        2.883192   -3.030981   -1.695009
     39          1           0        2.752996   -4.267465   -0.416169
     40          1           0        2.241269   -3.450766    1.914609
     41          1           0        1.733295   -1.770215    2.154054
     42          1           0        3.439752   -2.139420    1.865131
     43          1           0       -1.992118    1.142426   -1.103918
     44          1           0       -1.647200    1.081499    0.633239
     45          1           0        0.224610   -0.780096    1.301337
     46          1           0       -1.330478   -1.427623   -0.301786
     47          1           0       -0.523798   -0.580025   -1.484228
 ---------------------------------------------------------------------

 SCF Done:  E(RHF) =  -859.347191364     A.U. after   13 cycles

 The electronic state is 1-A.
 Alpha  occ. eigenvalues --  -20.67919 -20.66425 -15.82233 -15.73974 -15.73204
 Alpha  occ. eigenvalues --  -11.51204 -11.49976 -11.45707 -11.45275 -11.39848
 Alpha  occ. eigenvalues --  -11.38993 -11.38198 -11.37285 -11.36596 -11.34802
 Alpha  occ. eigenvalues --  -11.34546 -11.32777 -11.32761 -11.31914  -1.53793
 Alpha  occ. eigenvalues --   -1.52172  -1.44445  -1.38861  -1.37634  -1.25116
 Alpha  occ. eigenvalues --   -1.18854  -1.14528  -1.12082  -1.10072  -1.09485
 Alpha  occ. eigenvalues --   -1.09163  -1.06226  -1.03707  -0.95637  -0.94380
 Alpha  occ. eigenvalues --   -0.92498  -0.90569  -0.87624  -0.86269  -0.84665
 Alpha  occ. eigenvalues --   -0.82645  -0.81877  -0.79483  -0.78739  -0.78489
 Alpha  occ. eigenvalues --   -0.76653  -0.75999  -0.75443  -0.73654  -0.72573
 Alpha  occ. eigenvalues --   -0.71358  -0.70898  -0.70585  -0.69455  -0.68292
 Alpha  occ. eigenvalues --   -0.68215  -0.67563  -0.67079  -0.66055  -0.66000
 Alpha  occ. eigenvalues --   -0.65563  -0.65061  -0.64304  -0.63578  -0.62750
 Alpha  occ. eigenvalues --   -0.61067  -0.59938  -0.57964  -0.56685  -0.55807
 Alpha  occ. eigenvalues --   -0.54901  -0.54524  -0.51054  -0.49971
 Alpha virt. eigenvalues --    0.03470   0.03874   0.06202   0.09117   0.10006
 Alpha virt. eigenvalues --    0.11460   0.12344   0.13193   0.13828   0.14855
 Alpha virt. eigenvalues --    0.15174   0.16794   0.17600   0.18147   0.18338

 Mulliken atomic charges:
              1
     1  C    0.809388
     2  C    0.827588
     3  C   -0.320505
     4  C   -0.319805
     5  C   -0.320286
     6  C   -0.329230
     7  C   -0.329837
     8  C   -0.187726
     9  C   -0.314120
    10  C   -0.306318
    11  C   -0.315044
    12  C   -0.298585
    13  C   -0.241822
    14  C   -0.092933
    15  N   -0.659635
    16  N   -0.671682
    17  N   -0.851623
    18  O   -0.658872
    19  O   -0.661334
    20  H    0.193938
    21  H    0.170211
    22  H    0.194724
    23  H    0.165334
    24  H    0.156873
    25  H    0.196523
    26  H    0.181443
    27  H    0.173132
    28  H    0.146703
    29  H    0.207725
    30  H    0.177265
    31  H    0.199394
    32  H    0.252205
    33  H    0.200977
    34  H    0.215743
    35  H    0.183285
    36  H    0.215743
    37  H    0.195457
    38  H    0.251666
    39  H    0.198167
    40  H    0.212836
    41  H    0.179416
    42  H    0.208528
    43  H    0.262158
    44  H    0.256964
    45  H    0.245887
    46  H    0.506844
    47  H    0.493238
 Sum of Mulliken atomic charges =   1.00000

 Dipole moment (field-independent basis, Debye):
    X=             -3.1032    Y=              1.7848    Z=              2.5222  Tot=              4.3791
 Quadrupole moment (field-independent basis, Debye-Ang):
   XX=            -62.0027   YY=           -100.5272   ZZ=           -114.1865
   XY=            -18.3464   XZ=              4.7575   YZ=             -5.4118

 Normal termination of Gaussian 09 at Sat Feb 17 21:07:15 2018.
