 Gaussian 09, Revision C.01,
 Gaussian 09:  AM64L-G09RevC.01 23-Sep-2011

 ---------------------------------------------------------
 #B3LYP/6-31G* Integral=(Grid=UltraFine) freq Opt pop=none
 ---------------------------------------------------------

 99/9=1/99;
 ----------------------------
 Optimization for frag5-conf0
 ----------------------------
 Charge =  0 Multiplicity = 1

 SCF Done:  E(RB3LYP) =  -939.168154844     A.U. after   15 cycles
 SCF Done:  E(RB3LYP) =  -939.169832039     A.U. after   12 cycles
 SCF Done:  E(RB3LYP) =  -939.169989657     A.U. after   11 cycles
 SCF Done:  E(RB3LYP) =  -939.169983124     A.U. after   11 cycles
 SCF Done:  E(RB3LYP) =  -939.170030516     A.U. after   10 cycles
 SCF Done:  E(RB3LYP) =  -939.170052512     A.U. after   11 cycles
 SCF Done:  E(RB3LYP) =  -939.170155013     A.U. after   13 cycles
 SCF Done:  E(RB3LYP) =  -939.170223572     A.U. after   12 cycles
 SCF Done:  E(RB3LYP) =  -939.170275338     A.U. after   11 cycles
 SCF Done:  E(RB3LYP) =  -939.170320642     A.U. after   11 cycles
 SCF Done:  E(RB3LYP) =  -939.171863435     A.U. after   15 cycles
 SCF Done:  E(RB3LYP) =  -939.171447456     A.U. after   16 cycles
 SCF Done:  E(RB3LYP) =  -939.172059569     A.U. after   15 cycles
 SCF Done:  E(RB3LYP) =  -939.172087079     A.U. after   12 cycles
 SCF Done:  E(RB3LYP) =  -939.172088164     A.U. after   11 cycles
 SCF Done:  E(RB3LYP) =  -939.172104956     A.U. after   11 cycles
 SCF Done:  E(RB3LYP) =  -939.172105798     A.U. after    9 cycles
 SCF Done:  E(RB3LYP) =  -939.172106022     A.U. after    9 cycles
 SCF Done:  E(RB3LYP) =  -939.172106044     A.U. after    8 cycles
 Optimization completed.
    -- Stationary point found.
 Normal termination of Gaussian 09 at Fri Feb 16 17:50:26 2018.

 --------------------------------------------------------------------
 #N Geom=AllCheck Guess=TCheck SCRF=Check GenChk RB3LYP/6-31G(d) Freq
 --------------------------------------------------------------------

 Structure from the checkpoint file:  frag5-conf0.chk
 ----------------------------
 Optimization for frag5-conf0
 ----------------------------
 Charge =  0 Multiplicity = 1

                         Standard orientation:
 ---------------------------------------------------------------------
 Center     Atomic      Atomic             Coordinates (Angstroms)
 Number     Number       Type             X           Y           Z
 ---------------------------------------------------------------------
      1          6           0       -2.251854    1.945345    0.414060
      2          6           0       -0.924988    2.171520    0.040833
      3          6           0       -2.776555    0.654398    0.407168
      4          6           0       -0.628226   -0.193600   -0.360942
      5          6           0       -0.105082    1.107990   -0.347336
      6          6           0       -1.950895   -0.401810    0.016966
      7          6           0        2.880396   -0.450922    0.000917
      8          6           0        3.805157   -0.924782    1.111784
      9          6           0        1.342279    1.339435   -0.745221
     10          7           0        2.307992    0.778595    0.194962
     11          8           0        2.672999   -1.125302   -1.001700
     12         17           0       -2.604683   -2.036775   -0.002469
     13          1           0       -2.882542    2.778086    0.712993
     14          1           0       -0.526610    3.183477    0.047806
     15          1           0       -3.805085    0.464739    0.694765
     16          1           0       -0.003720   -1.026063   -0.669226
     17          1           0        3.379403   -1.825286    1.566318
     18          1           0        4.765699   -1.205495    0.670469
     19          1           0        3.975896   -0.178807    1.894330
     20          1           0        1.553644    0.864473   -1.706691
     21          1           0        1.535117    2.413196   -0.845871
     22          1           0        2.406483    1.223669    1.096567
 ---------------------------------------------------------------------

 SCF Done:  E(RB3LYP) =  -939.172106044     A.U. after    1 cycles

 Isotropic polarizability for W=    0.000000      108.84 Bohr**3.
 End of Minotr Frequency-dependent properties file   721 does not exist.

                     1                      2                      3
                     A                      A                      A
 Frequencies --    27.6315                41.5855                54.1889
 Red. masses --     4.1055                 2.3524                 2.7672
 Frc consts  --     0.0018                 0.0024                 0.0048
 IR Inten    --     2.3327                 0.2175                11.0775

                     4                      5                      6
                     A                      A                      A
 Frequencies --    66.7972               160.9624               183.1903
 Red. masses --     1.8737                 5.6635                 6.7291
 Frc consts  --     0.0049                 0.0865                 0.1330
 IR Inten    --     2.8997                 1.0696                 2.9865

                     7                      8                      9
                     A                      A                      A
 Frequencies --   205.8134               286.1146               306.9035
 Red. masses --     4.7270                 3.3858                 4.1996
 Frc consts  --     0.1180                 0.1633                 0.2331
 IR Inten    --     2.9263                 3.0476                 0.6688

                    10                     11                     12
                     A                      A                      A
 Frequencies --   372.0610               413.7638               439.4724
 Red. masses --     2.7956                10.9214                 2.7851
 Frc consts  --     0.2280                 1.1016                 0.3169
 IR Inten    --     1.7917                 7.9446                 3.5493

                    13                     14                     15
                     A                      A                      A
 Frequencies --   450.9907               473.0138               524.2110
 Red. masses --     1.3143                 2.9561                 4.8336
 Frc consts  --     0.1575                 0.3897                 0.7826
 IR Inten    --   100.5527                19.6976                 6.1259

                    16                     17                     18
                     A                      A                      A
 Frequencies --   608.3546               618.4955               653.6390
 Red. masses --     4.2682                 3.0118                 3.3099
 Frc consts  --     0.9307                 0.6788                 0.8332
 IR Inten    --    11.2425                 0.7261                 0.9532

                    19                     20                     21
                     A                      A                      A
 Frequencies --   695.4401               722.1493               798.9636
 Red. masses --     5.5224                 2.5305                 1.5000
 Frc consts  --     1.5736                 0.7775                 0.5641
 IR Inten    --    18.7492                26.0941                28.3826

                    22                     23                     24
                     A                      A                      A
 Frequencies --   854.9015               883.4024               913.5767
 Red. masses --     2.7745                 3.5247                 1.4551
 Frc consts  --     1.1947                 1.6207                 0.7155
 IR Inten    --     3.3751                13.2714                 1.1782

                    25                     26                     27
                     A                      A                      A
 Frequencies --   936.8700               976.1684              1002.1708
 Red. masses --     1.4130                 1.2863                 1.6601
 Frc consts  --     0.7307                 0.7222                 0.9824
 IR Inten    --     9.3329                 0.2055                 3.1885

                    28                     29                     30
                     A                      A                      A
 Frequencies --  1015.3883              1038.2551              1068.3271
 Red. masses --     6.1738                 2.5438                 1.7019
 Frc consts  --     3.7503                 1.6156                 1.1444
 IR Inten    --     3.2359                 5.9003                 8.7001

                    31                     32                     33
                     A                      A                      A
 Frequencies --  1103.1270              1111.8995              1128.9412
 Red. masses --     3.2532                 2.1897                 1.5861
 Frc consts  --     2.3325                 1.5950                 1.1910
 IR Inten    --    18.4023                24.3994                 1.7550

                    34                     35                     36
                     A                      A                      A
 Frequencies --  1201.6188              1230.5440              1266.4118
 Red. masses --     1.1467                 2.6639                 1.4879
 Frc consts  --     0.9755                 2.3767                 1.4060
 IR Inten    --     1.6085                26.6844                25.2092

                    37                     38                     39
                     A                      A                      A
 Frequencies --  1288.6285              1339.4451              1356.6069
 Red. masses --     1.8006                 1.3622                 3.3753
 Frc consts  --     1.7617                 1.4399                 3.6600
 IR Inten    --   129.1940                13.3659                 4.8992

                    40                     41                     42
                     A                      A                      A
 Frequencies --  1400.4585              1426.5084              1475.7702
 Red. masses --     1.3391                 1.2604                 2.5870
 Frc consts  --     1.5474                 1.5111                 3.3196
 IR Inten    --    14.9785                23.3670                27.3813

                    43                     44                     45
                     A                      A                      A
 Frequencies --  1499.9264              1501.8498              1515.5826
 Red. masses --     1.0759                 1.0865                 1.0719
 Frc consts  --     1.4262                 1.4439                 1.4506
 IR Inten    --    16.7336                 2.9176                19.4814

                    46                     47                     48
                     A                      A                      A
 Frequencies --  1524.1476              1555.3904              1632.5628
 Red. masses --     2.2551                 1.8739                 5.7174
 Frc consts  --     3.0866                 2.6711                 8.9783
 IR Inten    --    27.4116               192.8827                31.7369

                    49                     50                     51
                     A                      A                      A
 Frequencies --  1653.9945              1778.1826              3064.6368
 Red. masses --     5.9067                 8.9897                 1.0358
 Frc consts  --     9.5206                16.7474                 5.7316
 IR Inten    --    16.9267               196.7491                 8.1776

                    52                     53                     54
                     A                      A                      A
 Frequencies --  3070.4637              3134.3217              3136.9592
 Red. masses --     1.0650                 1.0997                 1.1027
 Frc consts  --     5.9158                 6.3655                 6.3936
 IR Inten    --    32.7843                 1.3975                14.6704

                    55                     56                     57
                     A                      A                      A
 Frequencies --  3146.7682              3180.7082              3200.9049
 Red. masses --     1.1020                 1.0877                 1.0922
 Frc consts  --     6.4293                 6.4833                 6.5931
 IR Inten    --    10.0622                 8.6726                18.1394

                    58                     59                     60
                     A                      A                      A
 Frequencies --  3221.8017              3225.5939              3623.0754
 Red. masses --     1.0922                 1.0943                 1.0776
 Frc consts  --     6.6799                 6.7081                 8.3344
 IR Inten    --     1.2034                 5.6170                15.6515

 - Thermochemistry -
 -------------------
 Temperature   298.150 Kelvin.  Pressure   1.00000 Atm.
 Atom     1 has atomic number  6 and mass  12.00000

 Molecular mass:   183.04509 amu.
 Principal axes and moments of inertia in atomic units:
                           1         2         3
     Eigenvalues --  1504.709993846.407024938.14885
           X            0.99946  -0.03114   0.01076
           Y            0.03125   0.99946  -0.01003
           Z           -0.01044   0.01036   0.99989
 This molecule is an asymmetric top.
 Rotational symmetry number  1.
 Warning -- assumption of classical behavior for rotation
           may cause significant error
 Rotational temperatures (Kelvin)      0.05756     0.02252     0.01754
 Rotational constants (GHZ):           1.19939     0.46920     0.36547
 Zero-point vibrational energy     459304.0 (Joules/Mol)
                                  109.77629 (Kcal/Mol)
 Warning -- explicit consideration of  17 degrees of freedom as
           vibrations may cause significant error
 Vibrational temperatures:     39.76    59.83    77.97    96.11   231.59
          (Kelvin)            263.57   296.12   411.65   441.57   535.31
                              595.31   632.30   648.87   680.56   754.22
                              875.29   889.88   940.44  1000.58  1039.01
                             1149.53  1230.01  1271.02  1314.43  1347.95
                             1404.49  1441.90  1460.92  1493.82  1537.08
                             1587.15  1599.77  1624.29  1728.86  1770.48
                             1822.08  1854.05  1927.16  1951.85  2014.94
                             2052.42  2123.30  2158.06  2160.82  2180.58
                             2192.91  2237.86  2348.89  2379.73  2558.40
                             4409.32  4417.71  4509.58  4513.38  4527.49
                             4576.32  4605.38  4635.45  4640.90  5212.79

 Zero-point correction=                           0.174940 (Hartree/Particle)
 Thermal correction to Energy=                    0.186689
 Thermal correction to Enthalpy=                  0.187633
 Thermal correction to Gibbs Free Energy=         0.134632
 Sum of electronic and zero-point Energies=           -938.997166
 Sum of electronic and thermal Energies=              -938.985417
 Sum of electronic and thermal Enthalpies=            -938.984473
 Sum of electronic and thermal Free Energies=         -939.037474

                     E (Thermal)             CV                S
                      KCal/Mol        Cal/Mol-Kelvin    Cal/Mol-Kelvin
 Total                  117.149             42.565            111.550
 Electronic               0.000              0.000              0.000
 Translational            0.889              2.981             41.520
 Rotational               0.889              2.981             31.725
 Vibrational            115.372             36.603             38.305
 Vibration     1          0.593              1.984              5.993
 Vibration     2          0.594              1.981              5.182
 Vibration     3          0.596              1.976              4.658
 Vibration     4          0.598              1.970              4.246
 Vibration     5          0.622              1.890              2.538
 Vibration     6          0.631              1.863              2.296
 Vibration     7          0.640              1.832              2.081
 Vibration     8          0.684              1.699              1.497
 Vibration     9          0.697              1.661              1.379
 Vibration    10          0.744              1.530              1.071
 Vibration    11          0.777              1.440              0.913
 Vibration    12          0.800              1.384              0.828
 Vibration    13          0.810              1.359              0.793
 Vibration    14          0.830              1.310              0.729
 Vibration    15          0.879              1.196              0.600
 Vibration    16          0.967              1.014              0.436
 Vibration    17          0.978              0.993              0.419

 Optimization completed.
    -- Stationary point found.
 Normal termination of Gaussian 09 at Fri Feb 16 18:07:09 2018.
