 Gaussian 09, Revision C.01,
 Gaussian 09:  AM64L-G09RevC.01 23-Sep-2011

 ----------------------------------------------------------------------
 #HF/6-31G* Geom=AllCheck Guess=Read Pop=(MK,ReadRadii) Integral=(Grid=
 UltraFine) iop(6/33=2)
 ----------------------------------------------------------------------

 Structure from the checkpoint file:  frag5-conf0.chk
 ----------------------------
 Optimization for frag5-conf0
 ----------------------------
 Charge =  0 Multiplicity = 1

                         Standard orientation:
 ---------------------------------------------------------------------
 Center     Atomic      Atomic             Coordinates (Angstroms)
 Number     Number       Type             X           Y           Z
 ---------------------------------------------------------------------
      1          6           0       -2.251854    1.945345    0.414060
      2          6           0       -0.924988    2.171520    0.040833
      3          6           0       -2.776555    0.654398    0.407168
      4          6           0       -0.628226   -0.193600   -0.360942
      5          6           0       -0.105082    1.107990   -0.347336
      6          6           0       -1.950895   -0.401810    0.016966
      7          6           0        2.880396   -0.450922    0.000917
      8          6           0        3.805157   -0.924782    1.111784
      9          6           0        1.342279    1.339435   -0.745221
     10          7           0        2.307992    0.778595    0.194962
     11          8           0        2.672999   -1.125302   -1.001700
     12         17           0       -2.604683   -2.036775   -0.002469
     13          1           0       -2.882542    2.778086    0.712993
     14          1           0       -0.526610    3.183477    0.047806
     15          1           0       -3.805085    0.464739    0.694765
     16          1           0       -0.003720   -1.026063   -0.669226
     17          1           0        3.379403   -1.825286    1.566318
     18          1           0        4.765699   -1.205495    0.670469
     19          1           0        3.975896   -0.178807    1.894330
     20          1           0        1.553644    0.864473   -1.706691
     21          1           0        1.535117    2.413196   -0.845871
     22          1           0        2.406483    1.223669    1.096567
 ---------------------------------------------------------------------

 SCF Done:  E(RHF) =  -935.450905880     A.U. after   14 cycles

 The electronic state is 1-A.
 Alpha  occ. eigenvalues -- -104.82224 -20.52637 -15.59699 -11.36031 -11.30599
 Alpha  occ. eigenvalues --  -11.27878 -11.25643 -11.25292 -11.25174 -11.24844
 Alpha  occ. eigenvalues --  -11.24743 -11.24333 -10.55530  -8.02466  -8.02136
 Alpha  occ. eigenvalues --   -8.02134  -1.37829  -1.23538  -1.18366  -1.11634
 Alpha  occ. eigenvalues --   -1.05123  -1.00946  -0.99571  -0.93313  -0.83374
 Alpha  occ. eigenvalues --   -0.81125  -0.78777  -0.70689  -0.69209  -0.65752
 Alpha  occ. eigenvalues --   -0.65091  -0.63649  -0.61854  -0.58997  -0.58368
 Alpha  occ. eigenvalues --   -0.58097  -0.56478  -0.55349  -0.53357  -0.52544
 Alpha  occ. eigenvalues --   -0.50528  -0.49845  -0.46177  -0.44920  -0.42370
 Alpha  occ. eigenvalues --   -0.39569  -0.34123  -0.33390
 Alpha virt. eigenvalues --    0.12254   0.12872   0.18816   0.20203   0.21168
 Alpha virt. eigenvalues --    0.24628   0.26879   0.28260   0.30422   0.30824
 Alpha virt. eigenvalues --    0.31212   0.32497   0.33147   0.34016   0.34296

 Mulliken atomic charges:
              1
     1  C   -0.192009
     2  C   -0.229972
     3  C   -0.185464
     4  C   -0.205612
     5  C    0.027382
     6  C   -0.130967
     7  C    0.763022
     8  C   -0.576609
     9  C   -0.165365
    10  N   -0.791219
    11  O   -0.629712
    12  Cl  -0.008024
    13  H    0.212403
    14  H    0.203875
    15  H    0.230557
    16  H    0.271618
    17  H    0.209883
    18  H    0.212680
    19  H    0.168563
    20  H    0.242044
    21  H    0.188296
    22  H    0.384630
 Sum of Mulliken atomic charges =   0.00000

 Dipole moment (field-independent basis, Debye):
    X=              1.0879    Y=              4.1719    Z=              3.0534  Tot=              5.2831
 Quadrupole moment (field-independent basis, Debye-Ang):
   XX=            -73.0011   YY=            -75.5775   ZZ=            -79.6486
   XY=             -0.0639   XZ=              6.9818   YZ=             -1.8820

 1\1\GINC-NODE040\SP\RHF\6-31G(d)\C9H10Cl1N1O1\WULSDORT\17-Feb-2018\0\\
 #HF/6-31G* Geom=AllCheck Guess=Read Pop=(MK,ReadRadii) Integral=(Grid=
 UltraFine) iop(6/33=2)\\Optimization for frag5-conf0\\0,1\C,0,2.119194
 221,-1.1084406102,0.0461194081\C,0,0.917290076,-0.4936087101,0.4045007
 264\C,0,2.9627433503,-1.6323668628,1.0237835557\C,0,1.3908096202,-0.91
 35307196,2.7374663951\C,0,0.5441156987,-0.3922827472,1.747813567\C,0,2
 .5827191505,-1.5257546872,2.363098037\C,0,-1.8876607515,-0.8366492159,
 4.0615922642\C,0,-2.8926049948,-1.8986422865,4.4811254585\C,0,-0.76503

 Normal termination of Gaussian 09 at Sat Feb 17 20:56:32 2018.
