 Gaussian 09, Revision C.01,
 Gaussian 09:  AM64L-G09RevC.01 23-Sep-2011

 ----------------------------------------------------------------------
 #HF/6-31G* Geom=AllCheck Guess=Read Pop=(MK,ReadRadii) Integral=(Grid=
 UltraFine) iop(6/33=2)
 ----------------------------------------------------------------------

 Structure from the checkpoint file:  frag27-conf1.chk
 -----------------------------
 Optimization for frag27-conf1
 -----------------------------
 Charge =  1 Multiplicity = 1

                         Standard orientation:
 ---------------------------------------------------------------------
 Center     Atomic      Atomic             Coordinates (Angstroms)
 Number     Number       Type             X           Y           Z
 ---------------------------------------------------------------------
      1          6           0        1.504580    1.906291    0.311449
      2          6           0        2.552015    1.015102    0.516804
      3          6           0        1.230745   -0.713639   -0.549957
      4          6           0        0.311006    1.511225   -0.312953
      5          6           0        0.172344    0.177378   -0.752400
      6          6           0        2.403297   -0.302713    0.082759
      7          6           0       -2.650001   -1.183339    0.241772
      8          6           0       -3.347948   -2.378120    0.842671
      9          6           0       -1.064615   -0.350996   -1.474301
     10          6           0       -0.779054    2.542924   -0.460002
     11          7           0       -1.772104   -1.413534   -0.756971
     12          7           0       -1.823960    2.370454    0.632213
     13          8           0       -2.898977   -0.036313    0.658679
     14         17           0        3.696931   -1.444788    0.317938
     15          1           0        1.624478    2.937760    0.634702
     16          1           0        3.470857    1.335329    0.995087
     17          1           0        1.150266   -1.740849   -0.892102
     18          1           0       -3.124317   -2.417875    1.913201
     19          1           0       -4.428844   -2.241011    0.741181
     20          1           0       -3.062512   -3.326928    0.381744
     21          1           0       -1.784325    0.442449   -1.686957
     22          1           0       -0.765954   -0.768036   -2.440335
     23          1           0       -0.378882    3.554299   -0.365902
     24          1           0       -1.322193    2.482749   -1.404832
     25          1           0       -1.627217   -2.368465   -1.054264
     26          1           0       -1.398027    2.482139    1.557991
     27          1           0       -2.248554    1.380869    0.592489
     28          1           0       -2.582561    3.056344    0.551866
 ---------------------------------------------------------------------

 SCF Done:  E(RHF) =  -1029.90117949     A.U. after   14 cycles

 The electronic state is 1-A.
 Alpha  occ. eigenvalues -- -104.93302 -20.68293 -15.83007 -15.74349 -11.50948
 Alpha  occ. eigenvalues --  -11.45595 -11.43082 -11.42463 -11.39810 -11.39670
 Alpha  occ. eigenvalues --  -11.38490 -11.37775 -11.37447 -11.36049 -10.66609
 Alpha  occ. eigenvalues --   -8.13547  -8.13195  -8.13194  -1.53039  -1.44657
 Alpha  occ. eigenvalues --   -1.38334  -1.31383  -1.25053  -1.18896  -1.16411
 Alpha  occ. eigenvalues --   -1.13918  -1.08364  -1.05926  -0.97417  -0.95039
 Alpha  occ. eigenvalues --   -0.93083  -0.91207  -0.90457  -0.83217  -0.82742
 Alpha  occ. eigenvalues --   -0.80705  -0.79947  -0.78039  -0.77139  -0.74726
 Alpha  occ. eigenvalues --   -0.72967  -0.72050  -0.71159  -0.70298  -0.69527
 Alpha  occ. eigenvalues --   -0.68206  -0.65754  -0.65435  -0.63820  -0.63121
 Alpha  occ. eigenvalues --   -0.58522  -0.57559  -0.55971  -0.54695  -0.47229
 Alpha  occ. eigenvalues --   -0.45892
 Alpha virt. eigenvalues --   -0.02130  -0.00745   0.03921   0.04917   0.07825
 Alpha virt. eigenvalues --    0.09071   0.09825   0.10580   0.12924   0.14546
 Alpha virt. eigenvalues --    0.16189   0.17109   0.17263   0.18566   0.19612

 Mulliken atomic charges:
              1
     1  C   -0.207354
     2  C   -0.175340
     3  C   -0.189811
     4  C   -0.027226
     5  C    0.049552
     6  C   -0.127999
     7  C    0.811373
     8  C   -0.581775
     9  C   -0.183318
    10  C   -0.244504
    11  N   -0.781411
    12  N   -0.911492
    13  O   -0.732065
    14  Cl   0.065377
    15  H    0.235041
    16  H    0.268288
    17  H    0.243426
    18  H    0.235344
    19  H    0.239389
    20  H    0.198035
    21  H    0.202824
    22  H    0.243186
    23  H    0.254548
    24  H    0.250612
    25  H    0.420507
    26  H    0.442889
    27  H    0.557197
    28  H    0.444708
 Sum of Mulliken atomic charges =   1.00000

 Dipole moment (field-independent basis, Debye):
    X=             -6.5598    Y=              4.8789    Z=             -0.1958  Tot=              8.1776
 Quadrupole moment (field-independent basis, Debye-Ang):
   XX=            -70.4432   YY=            -48.1480   ZZ=            -82.0181
   XY=              0.3302   XZ=              1.5107   YZ=              7.4990

 Normal termination of Gaussian 09 at Sat Feb 17 21:01:08 2018.
