 Gaussian 09, Revision C.01,
 Gaussian 09:  AM64L-G09RevC.01 23-Sep-2011

 ---------------------------------------------------------
 #B3LYP/6-31G* Integral=(Grid=UltraFine) freq Opt pop=none
 ---------------------------------------------------------

 99/9=1/99;
 -----------------------------
 Optimization for frag27-conf1
 -----------------------------
 Charge =  1 Multiplicity = 1

 SCF Done:  E(RB3LYP) =  -1034.19407600     A.U. after   15 cycles
 SCF Done:  E(RB3LYP) =  -1034.20179888     A.U. after   13 cycles
 SCF Done:  E(RB3LYP) =  -1034.20061000     A.U. after   15 cycles
 SCF Done:  E(RB3LYP) =  -1034.20497883     A.U. after   13 cycles
 SCF Done:  E(RB3LYP) =  -1034.20794305     A.U. after   13 cycles
 SCF Done:  E(RB3LYP) =  -1034.20813601     A.U. after   13 cycles
 SCF Done:  E(RB3LYP) =  -1034.20851139     A.U. after   13 cycles
 SCF Done:  E(RB3LYP) =  -1034.20912883     A.U. after   12 cycles
 SCF Done:  E(RB3LYP) =  -1034.20983110     A.U. after   12 cycles
 SCF Done:  E(RB3LYP) =  -1034.21038760     A.U. after   15 cycles
 SCF Done:  E(RB3LYP) =  -1034.22996805     A.U. after   11 cycles
 SCF Done:  E(RB3LYP) =  -1034.23000356     A.U. after   10 cycles
 SCF Done:  E(RB3LYP) =  -1034.23002785     A.U. after   10 cycles
 SCF Done:  E(RB3LYP) =  -1034.23004001     A.U. after   10 cycles
 SCF Done:  E(RB3LYP) =  -1034.23004974     A.U. after   10 cycles
 SCF Done:  E(RB3LYP) =  -1034.23005744     A.U. after   10 cycles
 SCF Done:  E(RB3LYP) =  -1034.23006015     A.U. after    9 cycles
 SCF Done:  E(RB3LYP) =  -1034.23006076     A.U. after    7 cycles
 SCF Done:  E(RB3LYP) =  -1034.23006090     A.U. after    7 cycles
 Optimization completed.
    -- Stationary point found.
 Normal termination of Gaussian 09 at Fri Feb 16 21:39:40 2018.

 --------------------------------------------------------------------
 #N Geom=AllCheck Guess=TCheck SCRF=Check GenChk RB3LYP/6-31G(d) Freq
 --------------------------------------------------------------------

 Structure from the checkpoint file:  frag27-conf1.chk
 -----------------------------
 Optimization for frag27-conf1
 -----------------------------
 Charge =  1 Multiplicity = 1

                         Standard orientation:
 ---------------------------------------------------------------------
 Center     Atomic      Atomic             Coordinates (Angstroms)
 Number     Number       Type             X           Y           Z
 ---------------------------------------------------------------------
      1          6           0        1.504580    1.906291    0.311449
      2          6           0        2.552015    1.015102    0.516804
      3          6           0        1.230745   -0.713639   -0.549957
      4          6           0        0.311006    1.511225   -0.312953
      5          6           0        0.172344    0.177378   -0.752400
      6          6           0        2.403297   -0.302713    0.082759
      7          6           0       -2.650001   -1.183339    0.241772
      8          6           0       -3.347948   -2.378120    0.842671
      9          6           0       -1.064615   -0.350996   -1.474301
     10          6           0       -0.779054    2.542924   -0.460002
     11          7           0       -1.772104   -1.413534   -0.756971
     12          7           0       -1.823960    2.370454    0.632213
     13          8           0       -2.898977   -0.036313    0.658679
     14         17           0        3.696931   -1.444788    0.317938
     15          1           0        1.624478    2.937760    0.634702
     16          1           0        3.470857    1.335329    0.995087
     17          1           0        1.150266   -1.740849   -0.892102
     18          1           0       -3.124317   -2.417875    1.913201
     19          1           0       -4.428844   -2.241011    0.741181
     20          1           0       -3.062512   -3.326928    0.381744
     21          1           0       -1.784325    0.442449   -1.686957
     22          1           0       -0.765954   -0.768036   -2.440335
     23          1           0       -0.378882    3.554299   -0.365902
     24          1           0       -1.322193    2.482749   -1.404832
     25          1           0       -1.627217   -2.368465   -1.054264
     26          1           0       -1.398027    2.482139    1.557991
     27          1           0       -2.248554    1.380869    0.592489
     28          1           0       -2.582561    3.056344    0.551866
 ---------------------------------------------------------------------

 SCF Done:  E(RB3LYP) =  -1034.23006090     A.U. after    1 cycles

 Isotropic polarizability for W=    0.000000      128.39 Bohr**3.
 End of Minotr Frequency-dependent properties file   721 does not exist.

                     1                      2                      3
                     A                      A                      A
 Frequencies --    38.0612                68.4480                80.5069
 Red. masses --     5.3388                 3.1872                 1.1837
 Frc consts  --     0.0046                 0.0088                 0.0045
 IR Inten    --     2.7098                 1.0063                 1.7863

                     4                      5                      6
                     A                      A                      A
 Frequencies --    92.5448               103.4446               165.2240
 Red. masses --     4.4089                 3.6731                 4.8932
 Frc consts  --     0.0222                 0.0232                 0.0787
 IR Inten    --    20.2484                 2.4904                 2.0710

                     7                      8                      9
                     A                      A                      A
 Frequencies --   186.2419               205.5985               253.5636
 Red. masses --     6.5528                 4.3553                 3.1887
 Frc consts  --     0.1339                 0.1085                 0.1208
 IR Inten    --     2.9206                 9.2707                52.9213

                    10                     11                     12
                     A                      A                      A
 Frequencies --   265.2964               307.0358               334.9454
 Red. masses --     3.1501                 5.2018                 2.0764
 Frc consts  --     0.1306                 0.2889                 0.1373
 IR Inten    --     4.3787                11.9987                 1.3938

                    13                     14                     15
                     A                      A                      A
 Frequencies --   364.8186               395.9154               426.5095
 Red. masses --     6.5093                 1.3147                 3.1253
 Frc consts  --     0.5104                 0.1214                 0.3350
 IR Inten    --    10.8433                 0.0344                 0.7411

                    16                     17                     18
                     A                      A                      A
 Frequencies --   444.3730               459.5236               500.3665
 Red. masses --     2.3247                 3.6589                 1.2970
 Frc consts  --     0.2705                 0.4552                 0.1913
 IR Inten    --     4.3335                20.6998                81.9572

                    19                     20                     21
                     A                      A                      A
 Frequencies --   527.6503               547.6504               603.7647
 Red. masses --     3.6906                 3.7158                 4.3577
 Frc consts  --     0.6054                 0.6566                 0.9359
 IR Inten    --    23.0728                26.6087                 5.0506

                    22                     23                     24
                     A                      A                      A
 Frequencies --   631.6911               658.2200               676.1861
 Red. masses --     2.7278                 3.4797                 5.3876
 Frc consts  --     0.6413                 0.8883                 1.4514
 IR Inten    --     2.5997                 6.9945                 1.8031

                    25                     26                     27
                     A                      A                      A
 Frequencies --   742.1831               778.9587               843.7343
 Red. masses --     3.5591                 4.3468                 1.4025
 Frc consts  --     1.1551                 1.5540                 0.5883
 IR Inten    --     1.2477                 7.0792                23.0811

                    28                     29                     30
                     A                      A                      A
 Frequencies --   860.2938               890.8598               907.2934
 Red. masses --     2.3926                 1.8149                 1.4709
 Frc consts  --     1.0433                 0.8486                 0.7134
 IR Inten    --     7.0521                 8.4251                 9.1840

                    31                     32                     33
                     A                      A                      A
 Frequencies --   915.6653               924.1579               973.1651
 Red. masses --     2.4731                 4.0169                 1.3206
 Frc consts  --     1.2217                 2.0213                 0.7369
 IR Inten    --     2.9864                43.7069                 0.2797

                    34                     35                     36
                     A                      A                      A
 Frequencies --  1011.5623              1044.2295              1075.3977
 Red. masses --     1.8616                 2.4479                 1.7073
 Frc consts  --     1.1223                 1.5726                 1.1633
 IR Inten    --     1.3901                16.5757                10.6451

                    37                     38                     39
                     A                      A                      A
 Frequencies --  1089.2984              1099.6162              1119.2482
 Red. masses --     1.9486                 1.8280                 2.1497
 Frc consts  --     1.3623                 1.3023                 1.5867
 IR Inten    --     9.7764                 4.5151                 2.6520

                    40                     41                     42
                     A                      A                      A
 Frequencies --  1136.6612              1174.1033              1210.4549
 Red. masses --     1.7064                 1.8549                 1.6977
 Frc consts  --     1.2989                 1.5066                 1.4656
 IR Inten    --    64.0556                 9.6665                 8.0169

                    43                     44                     45
                     A                      A                      A
 Frequencies --  1245.9730              1289.7255              1314.8217
 Red. masses --     2.6422                 1.4100                 1.5412
 Frc consts  --     2.4167                 1.3818                 1.5698
 IR Inten    --    42.0596                 1.5852                33.0514

                    46                     47                     48
                     A                      A                      A
 Frequencies --  1326.9807              1340.5338              1366.6964
 Red. masses --     1.9032                 1.4619                 1.8275
 Frc consts  --     1.9746                 1.5478                 2.0112
 IR Inten    --    59.0625                 6.9374                 4.3524

                    49                     50                     51
                     A                      A                      A
 Frequencies --  1402.2034              1413.9448              1434.7779
 Red. masses --     1.3751                 1.3367                 1.2287
 Frc consts  --     1.5929                 1.5745                 1.4903
 IR Inten    --     8.3618                50.6989                23.7873

                    52                     53                     54
                     A                      A                      A
 Frequencies --  1448.8523              1494.2673              1504.5497
 Red. masses --     2.9170                 1.0442                 1.1115
 Frc consts  --     3.6077                 1.3736                 1.4824
 IR Inten    --     4.7759                 9.4874                20.9406

                    55                     56                     57
                     A                      A                      A
 Frequencies --  1513.0045              1535.1574              1537.5965
 Red. masses --     1.0814                 1.9827                 1.2360
 Frc consts  --     1.4586                 2.7530                 1.7217
 IR Inten    --    25.1202                28.7380                 3.8203

                    58                     59                     60
                     A                      A                      A
 Frequencies --  1584.1848              1600.3050              1618.9509
 Red. masses --     2.1628                 1.1684                 6.5472
 Frc consts  --     3.1979                 1.7631                10.1105
 IR Inten    --   199.7235               181.0450                 9.9813

                    61                     62                     63
                     A                      A                      A
 Frequencies --  1649.7495              1685.2044              1707.0973
 Red. masses --     5.7055                 1.2939                 1.3800
 Frc consts  --     9.1491                 2.1649                 2.3695
 IR Inten    --    62.6950                51.8231               183.0390

                    64                     65                     66
                     A                      A                      A
 Frequencies --  1722.5619              2591.9244              3075.9872
 Red. masses --     1.6964                 1.1046                 1.0355
 Frc consts  --     2.9658                 4.3720                 5.7727
 IR Inten    --   155.8801              1575.4969                 0.8850

                    67                     68                     69
                     A                      A                      A
 Frequencies --  3094.6115              3116.9524              3139.9107
 Red. masses --     1.0612                 1.0616                 1.1033
 Frc consts  --     5.9875                 6.0769                 6.4087
 IR Inten    --    10.0259                 5.5348                10.0772

                    70                     71                     72
                     A                      A                      A
 Frequencies --  3147.5148              3160.9391              3167.7878
 Red. masses --     1.1011                 1.1055                 1.1090
 Frc consts  --     6.4269                 6.5079                 6.5571
 IR Inten    --     0.2116                 6.7471                 3.1234

                    73                     74                     75
                     A                      A                      A
 Frequencies --  3188.1824              3211.5765              3237.0537
 Red. masses --     1.0905                 1.0914                 1.0940
 Frc consts  --     6.5305                 6.6326                 6.7543
 IR Inten    --     6.5967                 0.7417                 0.1707

                    76                     77                     78
                     A                      A                      A
 Frequencies --  3436.0000              3507.2166              3629.6264
 Red. masses --     1.0531                 1.0938                 1.0789
 Frc consts  --     7.3250                 7.9269                 8.3746
 IR Inten    --    56.4520                50.8696                46.4378

 - Thermochemistry -
 -------------------
 Temperature   298.150 Kelvin.  Pressure   1.00000 Atm.
 Atom     1 has atomic number  6 and mass  12.00000

 Molecular mass:   213.07947 amu.
 Principal axes and moments of inertia in atomic units:
                           1         2         3
     Eigenvalues --  2184.639044688.799316160.88318
           X            0.99940   0.03440  -0.00378
           Y           -0.03437   0.99939   0.00654
           Z            0.00400  -0.00641   0.99997
 This molecule is an asymmetric top.
 Rotational symmetry number  1.
 Warning -- assumption of classical behavior for rotation
           may cause significant error
 Rotational temperatures (Kelvin)      0.03965     0.01847     0.01406
 Rotational constants (GHZ):           0.82610     0.38490     0.29294
 Zero-point vibrational energy     619527.3 (Joules/Mol)
                                  148.07059 (Kcal/Mol)
 Warning -- explicit consideration of  21 degrees of freedom as
           vibrations may cause significant error
 Vibrational temperatures:     54.76    98.48   115.83   133.15   148.83
          (Kelvin)            237.72   267.96   295.81   364.82   381.70
                              441.76   481.91   524.89   569.63   613.65
                              639.35   661.15   719.91   759.17   787.95
                              868.68   908.86   947.03   972.88  1067.83
                             1120.75  1213.94  1237.77  1281.75  1305.39
                             1317.44  1329.66  1400.17  1455.41  1502.41
                             1547.26  1567.26  1582.10  1610.35  1635.40
                             1689.27  1741.57  1792.67  1855.62  1891.73
                             1909.23  1928.73  1966.37  2017.46  2034.35
                             2064.32  2084.57  2149.91  2164.71  2176.87
                             2208.75  2212.26  2279.29  2302.48  2329.31
                             2373.62  2424.63  2456.13  2478.38  3729.20
                             4425.65  4452.45  4484.59  4517.63  4528.57
                             4547.88  4557.73  4587.08  4620.74  4657.39
                             4943.63  5046.10  5222.22

 Zero-point correction=                           0.235966 (Hartree/Particle)
 Thermal correction to Energy=                    0.249751
 Thermal correction to Enthalpy=                  0.250696
 Thermal correction to Gibbs Free Energy=         0.194674
 Sum of electronic and zero-point Energies=          -1033.994095
 Sum of electronic and thermal Energies=             -1033.980309
 Sum of electronic and thermal Enthalpies=           -1033.979365
 Sum of electronic and thermal Free Energies=        -1034.035387

                     E (Thermal)             CV                S
                      KCal/Mol        Cal/Mol-Kelvin    Cal/Mol-Kelvin
 Total                  156.721             51.961            117.908
 Electronic               0.000              0.000              0.000
 Translational            0.889              2.981             41.973
 Rotational               0.889              2.981             32.512
 Vibrational            154.944             46.000             43.423
 Vibration     1          0.594              1.982              5.358
 Vibration     2          0.598              1.969              4.198
 Vibration     3          0.600              1.962              3.878
 Vibration     4          0.602              1.955              3.606
 Vibration     5          0.605              1.946              3.388
 Vibration     6          0.624              1.885              2.489
 Vibration     7          0.632              1.859              2.265
 Vibration     8          0.640              1.832              2.082
 Vibration     9          0.665              1.757              1.706
 Vibration    10          0.671              1.737              1.627
 Vibration    11          0.697              1.660              1.378
 Vibration    12          0.716              1.606              1.236
 Vibration    13          0.738              1.545              1.102
 Vibration    14          0.763              1.479              0.978
 Vibration    15          0.788              1.413              0.870
 Vibration    16          0.804              1.373              0.813
 Vibration    17          0.817              1.340              0.767
 Vibration    18          0.856              1.249              0.657
 Vibration    19          0.883              1.189              0.592
 Vibration    20          0.903              1.145              0.549
 Vibration    21          0.962              1.024              0.443

 Normal termination of Gaussian 09 at Fri Feb 16 22:06:28 2018.
