 Gaussian 09, Revision C.01,
 Gaussian 09:  AM64L-G09RevC.01 23-Sep-2011

 ---------------------------------------------------------
 #B3LYP/6-31G* Integral=(Grid=UltraFine) freq Opt pop=none
 ---------------------------------------------------------

 99/9=1/99;
 -----------------------------
 Optimization for frag22-conf0
 -----------------------------
 Charge =  0 Multiplicity = 1

 SCF Done:  E(RB3LYP) =  -914.789785607     A.U. after   15 cycles
 SCF Done:  E(RB3LYP) =  -914.793557846     A.U. after   13 cycles
 SCF Done:  E(RB3LYP) =  -914.794505896     A.U. after   12 cycles
 SCF Done:  E(RB3LYP) =  -914.794973503     A.U. after   12 cycles
 SCF Done:  E(RB3LYP) =  -914.795527144     A.U. after   12 cycles
 SCF Done:  E(RB3LYP) =  -914.795898890     A.U. after   12 cycles
 SCF Done:  E(RB3LYP) =  -914.796256352     A.U. after   12 cycles
 SCF Done:  E(RB3LYP) =  -914.796534681     A.U. after   13 cycles
 SCF Done:  E(RB3LYP) =  -914.796572557     A.U. after   10 cycles
 SCF Done:  E(RB3LYP) =  -914.796757681     A.U. after   12 cycles
 SCF Done:  E(RB3LYP) =  -914.796733855     A.U. after   12 cycles
 SCF Done:  E(RB3LYP) =  -914.796817107     A.U. after   12 cycles
 SCF Done:  E(RB3LYP) =  -914.796838487     A.U. after   12 cycles
 SCF Done:  E(RB3LYP) =  -914.796853884     A.U. after   11 cycles
 SCF Done:  E(RB3LYP) =  -914.796854873     A.U. after    9 cycles
 SCF Done:  E(RB3LYP) =  -914.796856290     A.U. after   10 cycles
 SCF Done:  E(RB3LYP) =  -914.796857295     A.U. after   11 cycles
 SCF Done:  E(RB3LYP) =  -914.796857320     A.U. after    7 cycles
 Optimization completed.
    -- Stationary point found.
 Normal termination of Gaussian 09 at Fri Feb 16 19:28:30 2018.

 --------------------------------------------------------------------
 #N Geom=AllCheck Guess=TCheck SCRF=Check GenChk RB3LYP/6-31G(d) Freq
 --------------------------------------------------------------------

 Structure from the checkpoint file:  frag22-conf0.chk
 -----------------------------
 Optimization for frag22-conf0
 -----------------------------
 Charge =  0 Multiplicity = 1

                         Standard orientation:
 ---------------------------------------------------------------------
 Center     Atomic      Atomic             Coordinates (Angstroms)
 Number     Number       Type             X           Y           Z
 ---------------------------------------------------------------------
      1          6           0        3.814914    0.167541   -0.307932
      2          6           0        3.064371    1.342146   -0.230163
      3          6           0        3.237473   -1.050647    0.055348
      4          6           0        1.742839    1.299018    0.212577
      5          6           0        1.916269   -1.093680    0.498832
      6          6           0        1.159930    0.082290    0.588505
      7          6           0       -3.740165    0.930215    0.370769
      8          6           0       -0.268820    0.031243    1.056542
      9          7           0       -2.921564   -0.284326    0.491322
     10          8           0       -1.353172    0.823347   -1.259798
     11          8           0       -1.239726   -1.688446   -0.766039
     12         16           0       -1.427419   -0.302359   -0.321216
     13          1           0        4.845371    0.201198   -0.651251
     14          1           0        3.506734    2.292579   -0.515775
     15          1           0        3.815125   -1.968755   -0.007512
     16          1           0        1.157113    2.213081    0.263199
     17          1           0        1.464205   -2.043552    0.771006
     18          1           0       -3.205306    1.775537    0.810871
     19          1           0       -4.653515    0.769673    0.950461
     20          1           0       -3.999411    1.184706   -0.663056
     21          1           0       -0.597006    0.979217    1.492770
     22          1           0       -0.450202   -0.770855    1.776101
     23          1           0       -3.411128   -1.132755    0.213212
 ---------------------------------------------------------------------

 SCF Done:  E(RB3LYP) =  -914.796857320     A.U. after    1 cycles

 Isotropic polarizability for W=    0.000000      108.62 Bohr**3.
 End of Minotr Frequency-dependent properties file   721 does not exist.

                     1                      2                      3
                     A                      A                      A
 Frequencies --    21.5428                43.0734                60.7480
 Red. masses --     4.4909                 3.6223                 3.5814
 Frc consts  --     0.0012                 0.0040                 0.0078
 IR Inten    --     1.0109                 1.6970                 1.6118

                     4                      5                      6
                     A                      A                      A
 Frequencies --    81.2935               148.0363               218.0998
 Red. masses --     3.5080                 1.2098                 4.6236
 Frc consts  --     0.0137                 0.0156                 0.1296
 IR Inten    --     2.5468                 0.9119                 2.4081

                     7                      8                      9
                     A                      A                      A
 Frequencies --   233.4620               256.6059               267.0623
 Red. masses --     4.3708                 6.9744                 4.1621
 Frc consts  --     0.1404                 0.2706                 0.1749
 IR Inten    --     2.8808                 0.8974                 2.5120

                    10                     11                     12
                     A                      A                      A
 Frequencies --   371.1157               412.6429               416.0440
 Red. masses --     2.0665                 3.5542                 3.3253
 Frc consts  --     0.1677                 0.3566                 0.3391
 IR Inten    --     2.5938                18.1903                10.5003

                    13                     14                     15
                     A                      A                      A
 Frequencies --   436.7122               469.0887               532.0661
 Red. masses --     5.9261                 4.3523                 5.4455
 Frc consts  --     0.6659                 0.5643                 0.9083
 IR Inten    --     8.6135                 4.0085                62.7196

                    16                     17                     18
                     A                      A                      A
 Frequencies --   583.5460               630.8001               635.3884
 Red. masses --     4.0434                 2.7743                 6.2578
 Frc consts  --     0.8112                 0.6504                 1.4885
 IR Inten    --    79.0792               114.5566                 0.2324

                    19                     20                     21
                     A                      A                      A
 Frequencies --   695.8246               709.4220               787.1221
 Red. masses --     4.1445                 1.6250                 2.1219
 Frc consts  --     1.1823                 0.4818                 0.7746
 IR Inten    --     6.9412                25.2701                17.9807

                    22                     23                     24
                     A                      A                      A
 Frequencies --   825.8493               844.1636               854.6917
 Red. masses --     3.0882                 2.6153                 1.2537
 Frc consts  --     1.2409                 1.0981                 0.5396
 IR Inten    --    48.4610               126.0622                 0.0605

                    25                     26                     27
                     A                      A                      A
 Frequencies --   918.1313               927.6755               965.7902
 Red. masses --     1.7352                 1.4300                 1.3566
 Frc consts  --     0.8618                 0.7251                 0.7456
 IR Inten    --     0.6464                 0.4002                 0.0843

                    28                     29                     30
                     A                      A                      A
 Frequencies --   997.8055              1019.3554              1059.0195
 Red. masses --     1.2659                 6.1532                 2.2561
 Frc consts  --     0.7426                 3.7670                 1.4908
 IR Inten    --     0.0190                 0.4733                 5.4475

                    31                     32                     33
                     A                      A                      A
 Frequencies --  1069.3066              1109.5674              1119.6014
 Red. masses --     3.3415                 1.5465                11.9468
 Frc consts  --     2.2511                 1.1217                 8.8232
 IR Inten    --    78.4233                 1.7541               115.4076

                    34                     35                     36
                     A                      A                      A
 Frequencies --  1149.0479              1159.7943              1167.6710
 Red. masses --     1.3393                 1.3634                 1.2761
 Frc consts  --     1.0419                 1.0806                 1.0251
 IR Inten    --    15.2025                 5.9515                 8.5078

                    37                     38                     39
                     A                      A                      A
 Frequencies --  1194.7706              1216.9491              1230.7747
 Red. masses --     1.0991                 1.1457                 2.4444
 Frc consts  --     0.9244                 0.9997                 2.1816
 IR Inten    --     0.0328                 0.1563                 0.4167

                    40                     41                     42
                     A                      A                      A
 Frequencies --  1293.1756              1327.3236              1361.9016
 Red. masses --     1.4663                 7.2054                 5.0101
 Frc consts  --     1.4448                 7.4793                 5.4750
 IR Inten    --     1.2996               128.9401                 1.4124

                    43                     44                     45
                     A                      A                      A
 Frequencies --  1371.6755              1432.0245              1479.6412
 Red. masses --     1.3194                 1.3148                 1.1501
 Frc consts  --     1.4626                 1.5885                 1.4835
 IR Inten    --     1.3321                27.9595                 1.9881

                    46                     47                     48
                     A                      A                      A
 Frequencies --  1484.3517              1503.7293              1516.9784
 Red. masses --     1.1139                 2.2168                 1.0454
 Frc consts  --     1.4461                 2.9534                 1.4174
 IR Inten    --     5.2459                 8.1556                 8.1356

                    49                     50                     51
                     A                      A                      A
 Frequencies --  1538.7423              1547.4420              1646.3463
 Red. masses --     1.0438                 2.2192                 5.5162
 Frc consts  --     1.4561                 3.1309                 8.8091
 IR Inten    --    11.7038                 8.5510                 0.5320

                    52                     53                     54
                     A                      A                      A
 Frequencies --  1665.4111              3058.4407              3091.5171
 Red. masses --     5.5235                 1.0346                 1.0590
 Frc consts  --     9.0263                 5.7017                 5.9635
 IR Inten    --     0.6118                40.3496                 8.3630

                    55                     56                     57
                     A                      A                      A
 Frequencies --  3129.7675              3149.9027              3152.4736
 Red. masses --     1.1035                 1.1045                 1.1075
 Frc consts  --     6.3688                 6.4565                 6.4850
 IR Inten    --    18.5143                16.2803                 2.1539

                    58                     59                     60
                     A                      A                      A
 Frequencies --  3183.4736              3189.9270              3197.5874
 Red. masses --     1.0850                 1.0877                 1.0913
 Frc consts  --     6.4784                 6.5209                 6.5739
 IR Inten    --     1.1279                 0.5496                18.2069

                    61                     62                     63
                     A                      A                      A
 Frequencies --  3205.1450              3213.1314              3529.6125
 Red. masses --     1.0947                 1.0981                 1.0753
 Frc consts  --     6.6259                 6.6798                 7.8930
 IR Inten    --    30.7672                13.8862                29.2528

 - Thermochemistry -
 -------------------
 Temperature   298.150 Kelvin.  Pressure   1.00000 Atm.
 Atom     1 has atomic number  6 and mass  12.00000

 Molecular mass:   185.05105 amu.
 Principal axes and moments of inertia in atomic units:
                           1         2         3
     Eigenvalues --   863.040303952.002394282.09943
           X            0.99988  -0.01081  -0.01064
           Y            0.01071   0.99990  -0.00931
           Z            0.01074   0.00920   0.99990
 This molecule is an asymmetric top.
 Rotational symmetry number  1.
 Warning -- assumption of classical behavior for rotation
           may cause significant error
 Rotational temperatures (Kelvin)      0.10036     0.02192     0.02023
 Rotational constants (GHZ):           2.09114     0.45667     0.42146
 Zero-point vibrational energy     485141.8 (Joules/Mol)
                                  115.95168 (Kcal/Mol)
 Warning -- explicit consideration of  16 degrees of freedom as
           vibrations may cause significant error
 Vibrational temperatures:     31.00    61.97    87.40   116.96   212.99
          (Kelvin)            313.80   335.90   369.20   384.24   533.95
                              593.70   598.59   628.33   674.91   765.52
                              839.59   907.58   914.18  1001.14  1020.70
                             1132.49  1188.21  1214.56  1229.71  1320.98
                             1334.72  1389.55  1435.62  1466.62  1523.69
                             1538.49  1596.42  1610.85  1653.22  1668.68
                             1680.02  1719.01  1750.92  1770.81  1860.59
                             1909.72  1959.47  1973.53  2060.36  2128.87
                             2135.65  2163.53  2182.59  2213.90  2226.42
                             2368.72  2396.15  4400.41  4448.00  4503.03
                             4532.00  4535.70  4580.30  4589.59  4600.61
                             4611.48  4622.97  5078.32

 Zero-point correction=                           0.184781 (Hartree/Particle)
 Thermal correction to Energy=                    0.196691
 Thermal correction to Enthalpy=                  0.197635
 Thermal correction to Gibbs Free Energy=         0.144769
 Sum of electronic and zero-point Energies=           -914.612077
 Sum of electronic and thermal Energies=              -914.600166
 Sum of electronic and thermal Enthalpies=            -914.599222
 Sum of electronic and thermal Free Energies=         -914.652088

                     E (Thermal)             CV                S
                      KCal/Mol        Cal/Mol-Kelvin    Cal/Mol-Kelvin
 Total                  123.426             43.898            111.266
 Electronic               0.000              0.000              0.000
 Translational            0.889              2.981             41.553
 Rotational               0.889              2.981             31.058
 Vibrational            121.648             37.936             38.656
 Vibration     1          0.593              1.985              6.487
 Vibration     2          0.595              1.980              5.112
 Vibration     3          0.597              1.973              4.433
 Vibration     4          0.600              1.962              3.859
 Vibration     5          0.617              1.905              2.697
 Vibration     6          0.646              1.813              1.975
 Vibration     7          0.654              1.790              1.852
 Vibration     8          0.666              1.752              1.685
 Vibration     9          0.672              1.734              1.615
 Vibration    10          0.743              1.532              1.075
 Vibration    11          0.776              1.443              0.917
 Vibration    12          0.779              1.435              0.906
 Vibration    13          0.797              1.390              0.837
 Vibration    14          0.826              1.319              0.740
 Vibration    15          0.887              1.179              0.583
 Vibration    16          0.940              1.067              0.479

 Optimization completed.
    -- Stationary point found.
 Normal termination of Gaussian 09 at Fri Feb 16 19:47:09 2018.
