 Gaussian 09, Revision C.01,
 Gaussian 09:  AM64L-G09RevC.01 23-Sep-2011

 ----------------------------------------------------------------------
 #HF/6-31G* Geom=AllCheck Guess=Read Pop=(MK,ReadRadii) Integral=(Grid=
 UltraFine) iop(6/33=2)
 ----------------------------------------------------------------------

 Structure from the checkpoint file:  frag22-conf0.chk
 -----------------------------
 Optimization for frag22-conf0
 -----------------------------
 Charge =  0 Multiplicity = 1

                         Standard orientation:
 ---------------------------------------------------------------------
 Center     Atomic      Atomic             Coordinates (Angstroms)
 Number     Number       Type             X           Y           Z
 ---------------------------------------------------------------------
      1          6           0        3.814914    0.167541   -0.307932
      2          6           0        3.064371    1.342146   -0.230163
      3          6           0        3.237473   -1.050647    0.055348
      4          6           0        1.742839    1.299018    0.212577
      5          6           0        1.916269   -1.093680    0.498832
      6          6           0        1.159930    0.082290    0.588505
      7          6           0       -3.740165    0.930215    0.370769
      8          6           0       -0.268820    0.031243    1.056542
      9          7           0       -2.921564   -0.284326    0.491322
     10          8           0       -1.353172    0.823347   -1.259798
     11          8           0       -1.239726   -1.688446   -0.766039
     12         16           0       -1.427419   -0.302359   -0.321216
     13          1           0        4.845371    0.201198   -0.651251
     14          1           0        3.506734    2.292579   -0.515775
     15          1           0        3.815125   -1.968755   -0.007512
     16          1           0        1.157113    2.213081    0.263199
     17          1           0        1.464205   -2.043552    0.771006
     18          1           0       -3.205306    1.775537    0.810871
     19          1           0       -4.653515    0.769673    0.950461
     20          1           0       -3.999411    1.184706   -0.663056
     21          1           0       -0.597006    0.979217    1.492770
     22          1           0       -0.450202   -0.770855    1.776101
     23          1           0       -3.411128   -1.132755    0.213212
 ---------------------------------------------------------------------

 SCF Done:  E(RHF) =  -910.954599843     A.U. after   14 cycles

 The electronic state is 1-A.
 Alpha  occ. eigenvalues --  -92.20340 -20.55517 -20.55449 -15.60956 -11.28482
 Alpha  occ. eigenvalues --  -11.27822 -11.25594 -11.24396 -11.24313 -11.24218
 Alpha  occ. eigenvalues --  -11.23974 -11.23936  -9.17553  -6.86121  -6.86113
 Alpha  occ. eigenvalues --   -6.86003  -1.44793  -1.33146  -1.22826  -1.16090
 Alpha  occ. eigenvalues --   -1.07330  -1.01692  -0.98659  -0.94410  -0.84124
 Alpha  occ. eigenvalues --   -0.83161  -0.79582  -0.71283  -0.70095  -0.68230
 Alpha  occ. eigenvalues --   -0.66601  -0.64977  -0.63880  -0.62349  -0.60422
 Alpha  occ. eigenvalues --   -0.59030  -0.58351  -0.57242  -0.56403  -0.51189
 Alpha  occ. eigenvalues --   -0.50739  -0.49689  -0.49602  -0.48543  -0.46246
 Alpha  occ. eigenvalues --   -0.44984  -0.42715  -0.33634  -0.33330
 Alpha virt. eigenvalues --    0.12284   0.13790   0.20445   0.22327   0.24485
 Alpha virt. eigenvalues --    0.25436   0.25898   0.26686   0.27120   0.28438
 Alpha virt. eigenvalues --    0.29275   0.31015   0.32118   0.32824   0.33451

 Mulliken atomic charges:
              1
     1  C   -0.193853
     2  C   -0.202480
     3  C   -0.202373
     4  C   -0.187311
     5  C   -0.187856
     6  C   -0.001398
     7  C   -0.303228
     8  C   -0.577097
     9  N   -0.879685
    10  O   -0.690396
    11  O   -0.695837
    12  S    1.616752
    13  H    0.207334
    14  H    0.207611
    15  H    0.208374
    16  H    0.213528
    17  H    0.221594
    18  H    0.185666
    19  H    0.187987
    20  H    0.198977
    21  H    0.229014
    22  H    0.240896
    23  H    0.403782
 Sum of Mulliken atomic charges =   0.00000

 Dipole moment (field-independent basis, Debye):
    X=             -0.8135    Y=              1.2095    Z=              3.5030  Tot=              3.7942
 Quadrupole moment (field-independent basis, Debye-Ang):
   XX=            -58.8682   YY=            -77.5698   ZZ=            -84.9029
   XY=             -1.5543   XZ=             -5.7164   YZ=             -0.6474

 Normal termination of Gaussian 09 at Sat Feb 17 21:00:09 2018.
