 Gaussian 09, Revision C.01,
 Gaussian 09:  AM64L-G09RevC.01 23-Sep-2011

 ---------------------------------------------------------
 #B3LYP/6-31G* Integral=(Grid=UltraFine) freq Opt pop=none
 ---------------------------------------------------------

 99/9=1/99;
 ----------------------------
 Optimization for frag7-conf0
 ----------------------------
 Charge =  0 Multiplicity = 1

 SCF Done:  E(RB3LYP) =  -578.806113144     A.U. after   15 cycles
 SCF Done:  E(RB3LYP) =  -578.807401330     A.U. after   12 cycles
 SCF Done:  E(RB3LYP) =  -578.807509649     A.U. after   10 cycles
 SCF Done:  E(RB3LYP) =  -578.807506491     A.U. after   10 cycles
 SCF Done:  E(RB3LYP) =  -578.807543865     A.U. after   10 cycles
 SCF Done:  E(RB3LYP) =  -578.807573827     A.U. after   11 cycles
 SCF Done:  E(RB3LYP) =  -578.807695225     A.U. after   14 cycles
 SCF Done:  E(RB3LYP) =  -578.807747446     A.U. after   10 cycles
 SCF Done:  E(RB3LYP) =  -578.807790430     A.U. after   12 cycles
 SCF Done:  E(RB3LYP) =  -578.807805707     A.U. after   11 cycles
 SCF Done:  E(RB3LYP) =  -578.787657595     A.U. after   14 cycles
 SCF Done:  E(RB3LYP) =  -578.809592612     A.U. after   14 cycles
 SCF Done:  E(RB3LYP) =  -578.809424426     A.U. after   12 cycles
 SCF Done:  E(RB3LYP) =  -578.809094950     A.U. after   14 cycles
 SCF Done:  E(RB3LYP) =  -578.809599354     A.U. after   13 cycles
 SCF Done:  E(RB3LYP) =  -578.809607952     A.U. after   11 cycles
 SCF Done:  E(RB3LYP) =  -578.809609683     A.U. after   10 cycles
 SCF Done:  E(RB3LYP) =  -578.809609795     A.U. after    8 cycles
 SCF Done:  E(RB3LYP) =  -578.809609824     A.U. after    8 cycles
 Optimization completed.
    -- Stationary point found.
 Normal termination of Gaussian 09 at Fri Feb 16 19:53:50 2018.

 --------------------------------------------------------------------
 #N Geom=AllCheck Guess=TCheck SCRF=Check GenChk RB3LYP/6-31G(d) Freq
 --------------------------------------------------------------------

 Structure from the checkpoint file:  frag7-conf0.chk
 ----------------------------
 Optimization for frag7-conf0
 ----------------------------
 Charge =  0 Multiplicity = 1

                         Standard orientation:
 ---------------------------------------------------------------------
 Center     Atomic      Atomic             Coordinates (Angstroms)
 Number     Number       Type             X           Y           Z
 ---------------------------------------------------------------------
      1          6           0       -2.758182    1.273876    0.416397
      2          6           0       -1.487312    1.719659    0.042669
      3          6           0       -3.059320   -0.086841    0.406940
      4          6           0       -0.796775   -0.561758   -0.363927
      5          6           0       -0.500176    0.808799   -0.348517
      6          6           0       -2.064891   -0.978593    0.014053
      7          6           0        2.703156   -0.224850    0.001204
      8          6           0        3.692931   -0.536436    1.113839
      9          6           0        0.886401    1.282424   -0.746412
     10          7           0        1.933782    0.891785    0.193267
     11          8           0        2.614139   -0.925588   -1.001003
     12          9           0       -2.349415   -2.298582   -0.003415
     13          1           0       -3.518067    1.989906    0.716988
     14          1           0       -1.264113    2.783901    0.051328
     15          1           0       -4.036533   -0.463087    0.691040
     16          1           0       -0.052531   -1.289665   -0.671467
     17          1           0        3.428264   -1.499061    1.563320
     18          1           0        4.688917   -0.644773    0.674981
     19          1           0        3.730035    0.224336    1.899897
     20          1           0        1.175030    0.851450   -1.708518
     21          1           0        0.895743    2.373480   -0.844999
     22          1           0        1.953413    1.345281    1.095852
 ---------------------------------------------------------------------

 SCF Done:  E(RB3LYP) =  -578.809609824     A.U. after    1 cycles

 Isotropic polarizability for W=    0.000000       97.89 Bohr**3.
 End of Minotr Frequency-dependent properties file   721 does not exist.

                     1                      2                      3
                     A                      A                      A
 Frequencies --    29.1237                43.3624                55.5877
 Red. masses --     3.8745                 1.7803                 4.0441
 Frc consts  --     0.0019                 0.0020                 0.0074
 IR Inten    --     1.7837                 0.8447                11.1973

                     4                      5                      6
                     A                      A                      A
 Frequencies --    67.8249               171.6380               209.1183
 Red. masses --     1.9584                 5.0724                 6.5719
 Frc consts  --     0.0053                 0.0880                 0.1693
 IR Inten    --     2.1585                 1.7185                 5.9347

                     7                      8                      9
                     A                      A                      A
 Frequencies --   245.7908               300.0805               325.4676
 Red. masses --     5.1888                 3.9010                 2.4684
 Frc consts  --     0.1847                 0.2070                 0.1541
 IR Inten    --     0.7889                 0.5018                 2.1491

                    10                     11                     12
                     A                      A                      A
 Frequencies --   424.9723               448.8129               454.5022
 Red. masses --     4.3132                 1.8794                 1.7041
 Frc consts  --     0.4590                 0.2231                 0.2074
 IR Inten    --     2.1448                52.5133                57.0683

                    13                     14                     15
                     A                      A                      A
 Frequencies --   484.1769               526.0350               542.0716
 Red. masses --     3.1179                 7.7358                 4.8388
 Frc consts  --     0.4306                 1.2612                 0.8377
 IR Inten    --    17.2574                 2.0421                 8.2383

                    16                     17                     18
                     A                      A                      A
 Frequencies --   611.3357               622.7655               657.4629
 Red. masses --     4.2558                 2.7372                 3.5510
 Frc consts  --     0.9371                 0.6255                 0.9044
 IR Inten    --     6.7872                 2.2607                 0.8037

                    19                     20                     21
                     A                      A                      A
 Frequencies --   712.0642               760.5751               800.3788
 Red. masses --     3.0835                 3.5588                 1.6014
 Frc consts  --     0.9212                 1.2129                 0.6044
 IR Inten    --     9.5725                27.1208                31.3174

                    22                     23                     24
                     A                      A                      A
 Frequencies --   857.4728               897.8098               916.5495
 Red. masses --     2.6647                 1.3933                 1.3550
 Frc consts  --     1.1544                 0.6617                 0.6707
 IR Inten    --     2.9329                 0.9231                18.0773

                    25                     26                     27
                     A                      A                      A
 Frequencies --   966.8495               968.6574              1002.8213
 Red. masses --     3.1070                 1.2952                 1.6914
 Frc consts  --     1.7112                 0.7160                 1.0022
 IR Inten    --     9.0626                 0.4320                 4.0591

                    28                     29                     30
                     A                      A                      A
 Frequencies --  1019.2340              1040.5018              1068.1806
 Red. masses --     5.9349                 2.5508                 1.7011
 Frc consts  --     3.6325                 1.6271                 1.1436
 IR Inten    --     0.0387                 3.2341                 8.5619

                    31                     32                     33
                     A                      A                      A
 Frequencies --  1101.2117              1114.1867              1180.4614
 Red. masses --     2.7752                 1.6431                 1.7087
 Frc consts  --     1.9828                 1.2018                 1.4029
 IR Inten    --    13.8982                 1.8066                13.9204

                    34                     35                     36
                     A                      A                      A
 Frequencies --  1192.5401              1265.9832              1286.5145
 Red. masses --     1.1821                 1.4571                 1.8422
 Frc consts  --     0.9905                 1.3760                 1.7965
 IR Inten    --     1.8195                16.9191               139.2261

                    37                     38                     39
                     A                      A                      A
 Frequencies --  1302.3361              1334.2140              1366.9290
 Red. masses --     4.0682                 1.3135                 4.2037
 Frc consts  --     4.0653                 1.3777                 4.6278
 IR Inten    --    73.4743                20.0155                 2.3090

                    40                     41                     42
                     A                      A                      A
 Frequencies --  1401.7696              1426.1280              1493.8212
 Red. masses --     1.3674                 1.2616                 2.3798
 Frc consts  --     1.5831                 1.5118                 3.1289
 IR Inten    --    16.7951                22.6736                31.1031

                    43                     44                     45
                     A                      A                      A
 Frequencies --  1500.5286              1503.2944              1515.3734
 Red. masses --     1.0795                 1.1874                 1.0688
 Frc consts  --     1.4321                 1.5810                 1.4460
 IR Inten    --    13.2802                 9.7841                18.7635

                    46                     47                     48
                     A                      A                      A
 Frequencies --  1538.0319              1556.1552              1651.3359
 Red. masses --     2.5558                 1.8813                 6.0559
 Frc consts  --     3.5622                 2.6842                 9.7297
 IR Inten    --    58.5141               188.3710                51.2111

                    49                     50                     51
                     A                      A                      A
 Frequencies --  1669.0580              1777.9316              3064.2725
 Red. masses --     6.3545                 8.9899                 1.0358
 Frc consts  --    10.4298                16.7430                 5.7302
 IR Inten    --    35.7785               202.9053                 8.3551

                    52                     53                     54
                     A                      A                      A
 Frequencies --  3070.7856              3134.2820              3136.7867
 Red. masses --     1.0649                 1.0998                 1.1028
 Frc consts  --     5.9166                 6.3658                 6.3929
 IR Inten    --    32.2829                 1.1764                15.1277

                    55                     56                     57
                     A                      A                      A
 Frequencies --  3146.0167              3181.1817              3201.0866
 Red. masses --     1.1020                 1.0876                 1.0921
 Frc consts  --     6.4261                 6.4849                 6.5934
 IR Inten    --    10.3098                 8.2997                19.2932

                    58                     59                     60
                     A                      A                      A
 Frequencies --  3222.6909              3224.7616              3622.7299
 Red. masses --     1.0923                 1.0943                 1.0776
 Frc consts  --     6.6841                 6.7049                 8.3326
 IR Inten    --     2.5246                 5.5934                15.4250

 - Thermochemistry -
 -------------------
 Temperature   298.150 Kelvin.  Pressure   1.00000 Atm.
 Atom     1 has atomic number  6 and mass  12.00000

 Molecular mass:   167.07464 amu.
 Principal axes and moments of inertia in atomic units:
                           1         2         3
     Eigenvalues --  1103.810643434.287294124.26672
           X            0.99967  -0.02288   0.01172
           Y            0.02302   0.99967  -0.01148
           Z           -0.01146   0.01175   0.99987
 This molecule is an asymmetric top.
 Rotational symmetry number  1.
 Warning -- assumption of classical behavior for rotation
           may cause significant error
 Rotational temperatures (Kelvin)      0.07847     0.02522     0.02100
 Rotational constants (GHZ):           1.63501     0.52551     0.43759
 Zero-point vibrational energy     463036.3 (Joules/Mol)
                                  110.66833 (Kcal/Mol)
 Warning -- explicit consideration of  16 degrees of freedom as
           vibrations may cause significant error
 Vibrational temperatures:     41.90    62.39    79.98    97.58   246.95
          (Kelvin)            300.87   353.64   431.75   468.27   611.44
                              645.74   653.93   696.62   756.85   779.92
                              879.57   896.02   945.94  1024.50  1094.30
                             1151.57  1233.71  1291.75  1318.71  1391.08
                             1393.68  1442.83  1466.45  1497.05  1536.87
                             1584.40  1603.06  1698.42  1715.80  1821.47
                             1851.01  1873.77  1919.63  1966.70  2016.83
                             2051.88  2149.27  2158.92  2162.90  2180.28
                             2212.88  2238.96  2375.90  2401.40  2558.04
                             4408.80  4418.17  4509.53  4513.13  4526.41
                             4577.01  4605.64  4636.73  4639.71  5212.29

 Zero-point correction=                           0.176361 (Hartree/Particle)
 Thermal correction to Energy=                    0.187723
 Thermal correction to Enthalpy=                  0.188667
 Thermal correction to Gibbs Free Energy=         0.136971
 Sum of electronic and zero-point Energies=           -578.633249
 Sum of electronic and thermal Energies=              -578.621887
 Sum of electronic and thermal Enthalpies=            -578.620943
 Sum of electronic and thermal Free Energies=         -578.672639

                     E (Thermal)             CV                S
                      KCal/Mol        Cal/Mol-Kelvin    Cal/Mol-Kelvin
 Total                  117.798             41.661            108.805
 Electronic               0.000              0.000              0.000
 Translational            0.889              2.981             41.248
 Rotational               0.889              2.981             31.125
 Vibrational            116.020             35.699             36.431
 Vibration     1          0.593              1.984              5.888
 Vibration     2          0.595              1.980              5.099
 Vibration     3          0.596              1.975              4.608
 Vibration     4          0.598              1.970              4.216
 Vibration     5          0.626              1.877              2.417
 Vibration     6          0.642              1.827              2.051
 Vibration     7          0.660              1.770              1.761
 Vibration     8          0.693              1.674              1.416
 Vibration     9          0.710              1.625              1.282
 Vibration    10          0.787              1.416              0.875
 Vibration    11          0.808              1.364              0.799
 Vibration    12          0.813              1.351              0.782
 Vibration    13          0.840              1.285              0.699
 Vibration    14          0.881              1.192              0.596
 Vibration    15          0.897              1.157              0.561
 Vibration    16          0.970              1.008              0.431

 Optimization completed.
    -- Stationary point found.
 Normal termination of Gaussian 09 at Fri Feb 16 20:09:41 2018.
