 Gaussian 09, Revision C.01,
 Gaussian 09:  AM64L-G09RevC.01 23-Sep-2011

 ----------------------------------------------------------------------
 #HF/6-31G* Geom=AllCheck Guess=Read Pop=(MK,ReadRadii) Integral=(Grid=
 UltraFine) iop(6/33=2)
 ----------------------------------------------------------------------

 Structure from the checkpoint file:  frag7-conf0.chk
 ----------------------------
 Optimization for frag7-conf0
 ----------------------------
 Charge =  0 Multiplicity = 1

                         Standard orientation:
 ---------------------------------------------------------------------
 Center     Atomic      Atomic             Coordinates (Angstroms)
 Number     Number       Type             X           Y           Z
 ---------------------------------------------------------------------
      1          6           0       -2.758182    1.273876    0.416397
      2          6           0       -1.487312    1.719659    0.042669
      3          6           0       -3.059320   -0.086841    0.406940
      4          6           0       -0.796775   -0.561758   -0.363927
      5          6           0       -0.500176    0.808799   -0.348517
      6          6           0       -2.064891   -0.978593    0.014053
      7          6           0        2.703156   -0.224850    0.001204
      8          6           0        3.692931   -0.536436    1.113839
      9          6           0        0.886401    1.282424   -0.746412
     10          7           0        1.933782    0.891785    0.193267
     11          8           0        2.614139   -0.925588   -1.001003
     12          9           0       -2.349415   -2.298582   -0.003415
     13          1           0       -3.518067    1.989906    0.716988
     14          1           0       -1.264113    2.783901    0.051328
     15          1           0       -4.036533   -0.463087    0.691040
     16          1           0       -0.052531   -1.289665   -0.671467
     17          1           0        3.428264   -1.499061    1.563320
     18          1           0        4.688917   -0.644773    0.674981
     19          1           0        3.730035    0.224336    1.899897
     20          1           0        1.175030    0.851450   -1.708518
     21          1           0        0.895743    2.373480   -0.844999
     22          1           0        1.953413    1.345281    1.095852
 ---------------------------------------------------------------------

 SCF Done:  E(RHF) =  -575.402214903     A.U. after   14 cycles

 The electronic state is 1-A.
 Alpha  occ. eigenvalues --  -26.30322 -20.52524 -15.59588 -11.35927 -11.32758
 Alpha  occ. eigenvalues --  -11.27717 -11.25577 -11.25193 -11.24349 -11.24266
 Alpha  occ. eigenvalues --  -11.24202 -11.23799  -1.61262  -1.37706  -1.23404
 Alpha  occ. eigenvalues --   -1.16015  -1.05342  -1.01960  -1.00619  -0.93312
 Alpha  occ. eigenvalues --   -0.84234  -0.82627  -0.79029  -0.72748  -0.70447
 Alpha  occ. eigenvalues --   -0.68182  -0.67946  -0.67816  -0.65338  -0.62640
 Alpha  occ. eigenvalues --   -0.61221  -0.59969  -0.58681  -0.57819  -0.56204
 Alpha  occ. eigenvalues --   -0.54420  -0.53164  -0.51096  -0.49967  -0.49499
 Alpha  occ. eigenvalues --   -0.42292  -0.39472  -0.34027  -0.33377
 Alpha virt. eigenvalues --    0.12380   0.14585   0.19207   0.21272   0.23732
 Alpha virt. eigenvalues --    0.26113   0.27919   0.29735   0.30960   0.31371
 Alpha virt. eigenvalues --    0.32109   0.33124   0.33977   0.35322   0.37559

 Mulliken atomic charges:
              1
     1  C   -0.185354
     2  C   -0.242564
     3  C   -0.280570
     4  C   -0.306931
     5  C    0.033825
     6  C    0.473677
     7  C    0.763655
     8  C   -0.576377
     9  C   -0.164423
    10  N   -0.791151
    11  O   -0.630506
    12  F   -0.399336
    13  H    0.212401
    14  H    0.200483
    15  H    0.224764
    16  H    0.264527
    17  H    0.209107
    18  H    0.212255
    19  H    0.168342
    20  H    0.241229
    21  H    0.188509
    22  H    0.384436
 Sum of Mulliken atomic charges =   0.00000

 Dipole moment (field-independent basis, Debye):
    X=              0.2302    Y=              3.9349    Z=              3.0620  Tot=              4.9912
 Quadrupole moment (field-independent basis, Debye-Ang):
   XX=            -64.9973   YY=            -69.9311   ZZ=            -71.2474
   XY=              0.0784   XZ=              6.6686   YZ=             -1.5606

 Normal termination of Gaussian 09 at Sat Feb 17 20:56:31 2018.
