 Gaussian 09, Revision C.01,
 Gaussian 09:  AM64L-G09RevC.01 23-Sep-2011

 ---------------------------------------------------------
 #B3LYP/6-31G* Integral=(Grid=UltraFine) freq Opt pop=none
 ---------------------------------------------------------

 99/9=1/99;
 ----------------------------
 Optimization for frag7-conf1
 ----------------------------
 Charge =  0 Multiplicity = 1

 SCF Done:  E(RB3LYP) =  -578.806510294     A.U. after   15 cycles
 SCF Done:  E(RB3LYP) =  -578.808883281     A.U. after   13 cycles
 SCF Done:  E(RB3LYP) =  -578.809217563     A.U. after   12 cycles
 SCF Done:  E(RB3LYP) =  -578.809289766     A.U. after   13 cycles
 SCF Done:  E(RB3LYP) =  -578.809483914     A.U. after   11 cycles
 SCF Done:  E(RB3LYP) =  -578.809546365     A.U. after   12 cycles
 SCF Done:  E(RB3LYP) =  -578.809570342     A.U. after   12 cycles
 SCF Done:  E(RB3LYP) =  -578.809582180     A.U. after   11 cycles
 SCF Done:  E(RB3LYP) =  -578.809615589     A.U. after   11 cycles
 SCF Done:  E(RB3LYP) =  -578.809636653     A.U. after   10 cycles
 SCF Done:  E(RB3LYP) =  -578.809657390     A.U. after   11 cycles
 SCF Done:  E(RB3LYP) =  -578.809671486     A.U. after   11 cycles
 SCF Done:  E(RB3LYP) =  -578.809677750     A.U. after   11 cycles
 SCF Done:  E(RB3LYP) =  -578.809678289     A.U. after    9 cycles
 SCF Done:  E(RB3LYP) =  -578.809678358     A.U. after    7 cycles
 SCF Done:  E(RB3LYP) =  -578.809678405     A.U. after    8 cycles
 SCF Done:  E(RB3LYP) =  -578.809678426     A.U. after    7 cycles
 SCF Done:  E(RB3LYP) =  -578.809678431     A.U. after    6 cycles
 Optimization completed.
    -- Stationary point found.
 Normal termination of Gaussian 09 at Fri Feb 16 17:48:39 2018.

 --------------------------------------------------------------------
 #N Geom=AllCheck Guess=TCheck SCRF=Check GenChk RB3LYP/6-31G(d) Freq
 --------------------------------------------------------------------

 Structure from the checkpoint file:  frag7-conf1.chk
 ----------------------------
 Optimization for frag7-conf1
 ----------------------------
 Charge =  0 Multiplicity = 1

                         Standard orientation:
 ---------------------------------------------------------------------
 Center     Atomic      Atomic             Coordinates (Angstroms)
 Number     Number       Type             X           Y           Z
 ---------------------------------------------------------------------
      1          6           0       -1.605759    1.807722   -0.078032
      2          6           0       -0.446351    1.155595    0.339121
      3          6           0       -2.772699    1.087451   -0.348201
      4          6           0       -1.599642   -0.966192    0.225299
      5          6           0       -0.435637   -0.239363    0.492376
      6          6           0       -2.743561   -0.291091   -0.188274
      7          6           0        2.891877   -0.007653   -0.069821
      8          6           0        3.864101   -0.086214   -1.237573
      9          6           0        0.832354   -0.949585    0.932509
     10          7           0        1.889264   -0.940460   -0.075407
     11          8           0        3.012309    0.830524    0.816983
     12          9           0       -3.861628   -1.006085   -0.443046
     13          1           0       -1.607893    2.888454   -0.189987
     14          1           0        0.457422    1.718291    0.553787
     15          1           0       -3.687721    1.572908   -0.671119
     16          1           0       -1.633517   -2.046189    0.338124
     17          1           0        3.789787    0.836327   -1.822547
     18          1           0        4.882171   -0.139537   -0.841360
     19          1           0        3.693588   -0.940948   -1.899671
     20          1           0        1.256648   -0.459111    1.812140
     21          1           0        0.610787   -1.989794    1.195322
     22          1           0        1.761954   -1.510614   -0.899702
 ---------------------------------------------------------------------

 SCF Done:  E(RB3LYP) =  -578.809678431     A.U. after    1 cycles

 Isotropic polarizability for W=    0.000000       97.90 Bohr**3.
 End of Minotr Frequency-dependent properties file   721 does not exist.

                     1                      2                      3
                     A                      A                      A
 Frequencies --    25.6688                44.0440                56.6662
 Red. masses --     4.4577                 1.4127                 5.3022
 Frc consts  --     0.0017                 0.0016                 0.0100
 IR Inten    --     2.0752                 1.0286                14.4786

                     4                      5                      6
                     A                      A                      A
 Frequencies --    70.7205               174.9544               202.2241
 Red. masses --     2.2334                 4.7515                 7.5467
 Frc consts  --     0.0066                 0.0857                 0.1818
 IR Inten    --     0.7986                 3.1348                 4.1791

                     7                      8                      9
                     A                      A                      A
 Frequencies --   245.1881               297.9388               323.8422
 Red. masses --     5.4075                 4.3464                 2.3480
 Frc consts  --     0.1915                 0.2273                 0.1451
 IR Inten    --     0.2001                 0.8485                 3.4265

                    10                     11                     12
                     A                      A                      A
 Frequencies --   425.9013               448.0824               455.3236
 Red. masses --     4.1637                 2.2356                 1.4992
 Frc consts  --     0.4450                 0.2645                 0.1831
 IR Inten    --     3.2555                22.1276                79.6297

                    13                     14                     15
                     A                      A                      A
 Frequencies --   481.9212               523.4878               541.2492
 Red. masses --     3.1092                 7.4168                 4.8159
 Frc consts  --     0.4255                 1.1975                 0.8312
 IR Inten    --    18.0112                 5.1348                 9.6870

                    16                     17                     18
                     A                      A                      A
 Frequencies --   617.1356               622.5884               657.6644
 Red. masses --     4.1486                 2.7186                 3.5563
 Frc consts  --     0.9309                 0.6209                 0.9063
 IR Inten    --     3.7218                 4.4508                 0.7451

                    19                     20                     21
                     A                      A                      A
 Frequencies --   713.7163               764.5958               808.8610
 Red. masses --     3.2481                 3.9747                 1.4456
 Frc consts  --     0.9748                 1.3690                 0.5572
 IR Inten    --     9.4525                20.8640                32.8720

                    22                     23                     24
                     A                      A                      A
 Frequencies --   857.8805               881.5013               917.8321
 Red. masses --     2.6053                 1.4640                 1.3584
 Frc consts  --     1.1297                 0.6703                 0.6742
 IR Inten    --     4.1780                15.4172                 0.7688

                    25                     26                     27
                     A                      A                      A
 Frequencies --   953.2894               987.8616              1000.9131
 Red. masses --     3.5338                 1.2777                 1.6642
 Frc consts  --     1.8921                 0.7347                 0.9823
 IR Inten    --    18.9564                 0.9946                 3.7970

                    28                     29                     30
                     A                      A                      A
 Frequencies --  1020.1899              1045.6322              1067.8423
 Red. masses --     6.1458                 2.4100                 1.7058
 Frc consts  --     3.7687                 1.5525                 1.1460
 IR Inten    --     0.0557                16.3779                 6.8778

                    31                     32                     33
                     A                      A                      A
 Frequencies --  1102.3016              1112.3318              1177.8930
 Red. masses --     3.0676                 1.5509                 1.6232
 Frc consts  --     2.1961                 1.1306                 1.3269
 IR Inten    --    10.1400                 3.9363                19.6048

                    34                     35                     36
                     A                      A                      A
 Frequencies --  1197.1473              1264.6963              1288.6037
 Red. masses --     1.1999                 1.4853                 2.0028
 Frc consts  --     1.0132                 1.3997                 1.9595
 IR Inten    --     0.3462                14.4860               161.4504

                    37                     38                     39
                     A                      A                      A
 Frequencies --  1302.0124              1333.9021              1366.4558
 Red. masses --     3.9896                 1.3252                 4.1057
 Frc consts  --     3.9848                 1.3893                 4.5167
 IR Inten    --    47.0755                20.0934                 5.3871

                    40                     41                     42
                     A                      A                      A
 Frequencies --  1399.2598              1426.3137              1496.9802
 Red. masses --     1.3203                 1.2606                 2.8839
 Frc consts  --     1.5231                 1.5110                 3.8077
 IR Inten    --    11.5584                23.1409                63.6477

                    43                     44                     45
                     A                      A                      A
 Frequencies --  1500.0688              1502.0256              1515.6762
 Red. masses --     1.0969                 1.0800                 1.0687
 Frc consts  --     1.4543                 1.4356                 1.4465
 IR Inten    --    12.4945                 3.7496                13.8367

                    46                     47                     48
                     A                      A                      A
 Frequencies --  1538.1820              1556.7526              1652.7008
 Red. masses --     2.5075                 1.8742                 6.1858
 Frc consts  --     3.4955                 2.6762                 9.9548
 IR Inten    --    38.9424               188.6687                54.0042

                    49                     50                     51
                     A                      A                      A
 Frequencies --  1669.2492              1778.0079              3064.3472
 Red. masses --     6.2223                 8.9830                 1.0357
 Frc consts  --    10.2151                16.7317                 5.7303
 IR Inten    --    38.8620               203.0098                 8.2792

                    52                     53                     54
                     A                      A                      A
 Frequencies --  3070.9378              3135.7945              3136.6523
 Red. masses --     1.0653                 1.1003                 1.1020
 Frc consts  --     5.9189                 6.3749                 6.3878
 IR Inten    --    33.1262                 0.6032                15.8325

                    55                     56                     57
                     A                      A                      A
 Frequencies --  3146.1513              3195.0719              3203.4102
 Red. masses --     1.1020                 1.0877                 1.0910
 Frc consts  --     6.4270                 6.5419                 6.5966
 IR Inten    --    10.5379                 8.9797                 5.5718

                    58                     59                     60
                     A                      A                      A
 Frequencies --  3213.9418              3224.9271              3622.5519
 Red. masses --     1.0931                 1.0947                 1.0776
 Frc consts  --     6.6527                 6.7078                 8.3318
 IR Inten    --     2.6470                 6.4088                15.4987

 - Thermochemistry -
 -------------------
 Temperature   298.150 Kelvin.  Pressure   1.00000 Atm.
 Atom     1 has atomic number  6 and mass  12.00000

 Molecular mass:   167.07464 amu.
 Principal axes and moments of inertia in atomic units:
                           1         2         3
     Eigenvalues --   806.940884125.259404474.91623
           X            0.99974  -0.01715  -0.01499
           Y            0.01668   0.99939  -0.03072
           Z            0.01550   0.03046   0.99942
 This molecule is an asymmetric top.
 Rotational symmetry number  1.
 Warning -- assumption of classical behavior for rotation
           may cause significant error
 Rotational temperatures (Kelvin)      0.10734     0.02100     0.01936
 Rotational constants (GHZ):           2.23652     0.43749     0.40330
 Zero-point vibrational energy     463128.6 (Joules/Mol)
                                  110.69040 (Kcal/Mol)
 Warning -- explicit consideration of  16 degrees of freedom as
           vibrations may cause significant error
 Vibrational temperatures:     36.93    63.37    81.53   101.75   251.72
          (Kelvin)            290.95   352.77   428.67   465.94   612.78
                              644.69   655.11   693.38   753.18   778.74
                              887.92   895.76   946.23  1026.88  1100.08
                             1163.77  1234.30  1268.28  1320.55  1371.57
                             1421.31  1440.09  1467.82  1504.43  1536.39
                             1585.96  1600.40  1694.72  1722.43  1819.61
                             1854.01  1873.30  1919.19  1966.02  2013.22
                             2052.14  2153.82  2158.26  2161.08  2180.72
                             2213.10  2239.82  2377.86  2401.67  2558.15
                             4408.91  4418.39  4511.70  4512.94  4526.60
                             4596.99  4608.99  4624.14  4639.94  5212.04

 Zero-point correction=                           0.176396 (Hartree/Particle)
 Thermal correction to Energy=                    0.187764
 Thermal correction to Enthalpy=                  0.188708
 Thermal correction to Gibbs Free Energy=         0.136967
 Sum of electronic and zero-point Energies=           -578.633282
 Sum of electronic and thermal Energies=              -578.621914
 Sum of electronic and thermal Enthalpies=            -578.620970
 Sum of electronic and thermal Free Energies=         -578.672712

                     E (Thermal)             CV                S
                      KCal/Mol        Cal/Mol-Kelvin    Cal/Mol-Kelvin
 Total                  117.824             41.658            108.900
 Electronic               0.000              0.000              0.000
 Translational            0.889              2.981             41.248
 Rotational               0.889              2.981             31.077
 Vibrational            116.046             35.696             36.574
 Vibration     1          0.593              1.985              6.139
 Vibration     2          0.595              1.980              5.068
 Vibration     3          0.596              1.975              4.570
 Vibration     4          0.598              1.968              4.133
 Vibration     5          0.627              1.873              2.382
 Vibration     6          0.639              1.837              2.113
 Vibration     7          0.660              1.771              1.765
 Vibration     8          0.691              1.678              1.428
 Vibration     9          0.708              1.628              1.291
 Vibration    10          0.788              1.414              0.872
 Vibration    11          0.807              1.365              0.802
 Vibration    12          0.814              1.349              0.780
 Vibration    13          0.838              1.290              0.705
 Vibration    14          0.878              1.198              0.602
 Vibration    15          0.896              1.159              0.563
 Vibration    16          0.977              0.996              0.421

 Optimization completed.
    -- Stationary point found.
 Normal termination of Gaussian 09 at Fri Feb 16 18:04:47 2018.
