 Gaussian 09, Revision C.01,
 Gaussian 09:  AM64L-G09RevC.01 23-Sep-2011

 ----------------------------------------------------------------------
 #HF/6-31G* Geom=AllCheck Guess=Read Pop=(MK,ReadRadii) Integral=(Grid=
 UltraFine) iop(6/33=2)
 ----------------------------------------------------------------------

 Structure from the checkpoint file:  frag7-conf1.chk
 ----------------------------
 Optimization for frag7-conf1
 ----------------------------
 Charge =  0 Multiplicity = 1

                         Standard orientation:
 ---------------------------------------------------------------------
 Center     Atomic      Atomic             Coordinates (Angstroms)
 Number     Number       Type             X           Y           Z
 ---------------------------------------------------------------------
      1          6           0       -1.605759    1.807722   -0.078032
      2          6           0       -0.446351    1.155595    0.339121
      3          6           0       -2.772699    1.087451   -0.348201
      4          6           0       -1.599642   -0.966192    0.225299
      5          6           0       -0.435637   -0.239363    0.492376
      6          6           0       -2.743561   -0.291091   -0.188274
      7          6           0        2.891877   -0.007653   -0.069821
      8          6           0        3.864101   -0.086214   -1.237573
      9          6           0        0.832354   -0.949585    0.932509
     10          7           0        1.889264   -0.940460   -0.075407
     11          8           0        3.012309    0.830524    0.816983
     12          9           0       -3.861628   -1.006085   -0.443046
     13          1           0       -1.607893    2.888454   -0.189987
     14          1           0        0.457422    1.718291    0.553787
     15          1           0       -3.687721    1.572908   -0.671119
     16          1           0       -1.633517   -2.046189    0.338124
     17          1           0        3.789787    0.836327   -1.822547
     18          1           0        4.882171   -0.139537   -0.841360
     19          1           0        3.693588   -0.940948   -1.899671
     20          1           0        1.256648   -0.459111    1.812140
     21          1           0        0.610787   -1.989794    1.195322
     22          1           0        1.761954   -1.510614   -0.899702
 ---------------------------------------------------------------------

 SCF Done:  E(RHF) =  -575.402367898     A.U. after   14 cycles

 The electronic state is 1-A.
 Alpha  occ. eigenvalues --  -26.30665 -20.52591 -15.59633 -11.35993 -11.32937
 Alpha  occ. eigenvalues --  -11.27752 -11.25605 -11.25000 -11.24481 -11.24345
 Alpha  occ. eigenvalues --  -11.24319 -11.23569  -1.61570  -1.37764  -1.23449
 Alpha  occ. eigenvalues --   -1.16032  -1.05384  -1.02006  -1.00614  -0.93364
 Alpha  occ. eigenvalues --   -0.84365  -0.82570  -0.79088  -0.73179  -0.69797
 Alpha  occ. eigenvalues --   -0.68622  -0.68270  -0.67787  -0.65427  -0.63136
 Alpha  occ. eigenvalues --   -0.61064  -0.59780  -0.58951  -0.57934  -0.56226
 Alpha  occ. eigenvalues --   -0.54724  -0.52427  -0.51733  -0.49729  -0.49478
 Alpha  occ. eigenvalues --   -0.42359  -0.39510  -0.34455  -0.33028
 Alpha virt. eigenvalues --    0.12724   0.14137   0.19155   0.21241   0.24036
 Alpha virt. eigenvalues --    0.25809   0.27596   0.30008   0.30949   0.31387
 Alpha virt. eigenvalues --    0.32217   0.33274   0.34046   0.35175   0.37184

 Mulliken atomic charges:
              1
     1  C   -0.187449
     2  C   -0.237026
     3  C   -0.281562
     4  C   -0.314311
     5  C    0.037494
     6  C    0.473372
     7  C    0.763684
     8  C   -0.576295
     9  C   -0.165995
    10  N   -0.790673
    11  O   -0.631158
    12  F   -0.401593
    13  H    0.215381
    14  H    0.248989
    15  H    0.224562
    16  H    0.218151
    17  H    0.207575
    18  H    0.212279
    19  H    0.169081
    20  H    0.241015
    21  H    0.189603
    22  H    0.384876
 Sum of Mulliken atomic charges =   0.00000

 Dipole moment (field-independent basis, Debye):
    X=              0.7003    Y=             -1.5756    Z=             -2.3226  Tot=              2.8927
 Quadrupole moment (field-independent basis, Debye-Ang):
   XX=            -76.9108   YY=            -64.9018   ZZ=            -70.6810
   XY=            -10.5810   XZ=             -8.6110   YZ=             -2.4758

 Normal termination of Gaussian 09 at Sat Feb 17 20:56:39 2018.
