 Gaussian 09, Revision C.01,
 Gaussian 09:  AM64L-G09RevC.01 23-Sep-2011

 ----------------------------------------------------------------------
 #HF/6-31G* Geom=AllCheck Guess=Read Pop=(MK,ReadRadii) Integral=(Grid=
 UltraFine) iop(6/33=2)
 ----------------------------------------------------------------------

 Structure from the checkpoint file:  frag0-conf1.chk
 ----------------------------
 Optimization for frag0-conf1
 ----------------------------
 Charge =  0 Multiplicity = 1

                         Standard orientation:
 ---------------------------------------------------------------------
 Center     Atomic      Atomic             Coordinates (Angstroms)
 Number     Number       Type             X           Y           Z
 ---------------------------------------------------------------------
      1          6           0        2.319201   -0.066191   -0.235613
      2          6           0       -1.336191   -0.297688    0.060344
      3          6           0        3.361835   -1.142366    0.028963
      4          6           0       -0.076010    1.720906    0.956810
      5          6           0       -3.763240   -0.335789   -0.412524
      6          6           0       -0.054586    0.545854   -0.041146
      7          7           0       -2.449751    0.284330   -0.459697
      8          7           0        1.059410   -0.349493    0.197971
      9          8           0        2.599187    0.989070   -0.798623
     10          8           0       -1.336814   -1.402987    0.597847
     11          1           0        3.804344   -1.446408   -0.924790
     12          1           0        4.164368   -0.714686    0.637982
     13          1           0        2.962526   -2.026178    0.535769
     14          1           0       -0.186698    1.350468    1.981208
     15          1           0        0.865620    2.269013    0.873730
     16          1           0       -0.900726    2.411410    0.745770
     17          1           0       -4.150867   -0.515802   -1.421855
     18          1           0       -4.476396    0.291204    0.135021
     19          1           0       -3.655091   -1.290335    0.103542
     20          1           0        0.045565    0.954344   -1.054989
     21          1           0       -2.355365    1.184068   -0.909253
     22          1           0        0.810064   -1.247968    0.595144
 ---------------------------------------------------------------------

 SCF Done:  E(RHF) =  -492.856068807     A.U. after   13 cycles

 The electronic state is 1-A.
 Alpha  occ. eigenvalues --  -20.53847 -20.51629 -15.60351 -15.58278 -11.36518
 Alpha  occ. eigenvalues --  -11.35045 -11.28736 -11.26995 -11.23453 -11.22955
 Alpha  occ. eigenvalues --   -1.39067  -1.36735  -1.23972  -1.22751  -1.05208
 Alpha  occ. eigenvalues --   -0.98765  -0.95991  -0.88221  -0.80197  -0.77917
 Alpha  occ. eigenvalues --   -0.72711  -0.67097  -0.65427  -0.64033  -0.62993
 Alpha  occ. eigenvalues --   -0.61408  -0.59768  -0.58326  -0.56493  -0.56216
 Alpha  occ. eigenvalues --   -0.55558  -0.54210  -0.52643  -0.52081  -0.48863
 Alpha  occ. eigenvalues --   -0.43102  -0.41288  -0.40213  -0.38148
 Alpha virt. eigenvalues --    0.18009   0.20266   0.21069   0.23920   0.26005
 Alpha virt. eigenvalues --    0.27785   0.28869   0.29793   0.30916   0.31311
 Alpha virt. eigenvalues --    0.32397   0.32944   0.33768   0.34391   0.36121

 Mulliken atomic charges:
              1
     1  C    0.767443
     2  C    0.785715
     3  C   -0.574062
     4  C   -0.483034
     5  C   -0.289124
     6  C   -0.031636
     7  N   -0.800594
     8  N   -0.830167
     9  O   -0.639590
    10  O   -0.650156
    11  H    0.205334
    12  H    0.205448
    13  H    0.175182
    14  H    0.177085
    15  H    0.216792
    16  H    0.151605
    17  H    0.174177
    18  H    0.173352
    19  H    0.232296
    20  H    0.215693
    21  H    0.390589
    22  H    0.427650
 Sum of Mulliken atomic charges =   0.00000

 Dipole moment (field-independent basis, Debye):
    X=             -2.7397    Y=              0.1840    Z=             -0.0575  Tot=              2.7465
 Quadrupole moment (field-independent basis, Debye-Ang):
   XX=            -55.4109   YY=            -63.2248   ZZ=            -61.7509
   XY=            -13.0363   XZ=              8.1712   YZ=              2.5107

 Normal termination of Gaussian 09 at Mon Feb 26 23:17:10 2018.
