 Gaussian 09, Revision C.01,
 Gaussian 09:  AM64L-G09RevC.01 23-Sep-2011

 ---------------------------------------------------------
 #B3LYP/6-31G* Integral=(Grid=UltraFine) freq Opt pop=none
 ---------------------------------------------------------

 99/9=1/99;
 ----------------------------
 Optimization for frag0-conf1
 ----------------------------
 Charge =  0 Multiplicity = 1

 SCF Done:  E(RB3LYP) =  -495.845056321     A.U. after   15 cycles
 SCF Done:  E(RB3LYP) =  -495.848029790     A.U. after   13 cycles
 SCF Done:  E(RB3LYP) =  -495.849097759     A.U. after   15 cycles
 SCF Done:  E(RB3LYP) =  -495.846900361     A.U. after   15 cycles
 SCF Done:  E(RB3LYP) =  -495.850060097     A.U. after   14 cycles
 SCF Done:  E(RB3LYP) =  -495.850321322     A.U. after   12 cycles
 SCF Done:  E(RB3LYP) =  -495.850330899     A.U. after   12 cycles
 SCF Done:  E(RB3LYP) =  -495.850441368     A.U. after   11 cycles
 SCF Done:  E(RB3LYP) =  -495.850479752     A.U. after   11 cycles
 SCF Done:  E(RB3LYP) =  -495.850535343     A.U. after   11 cycles
 SCF Done:  E(RB3LYP) =  -495.852861694     A.U. after   10 cycles
 SCF Done:  E(RB3LYP) =  -495.852867003     A.U. after    9 cycles
 SCF Done:  E(RB3LYP) =  -495.852871637     A.U. after    9 cycles
 SCF Done:  E(RB3LYP) =  -495.852874910     A.U. after    9 cycles
 SCF Done:  E(RB3LYP) =  -495.852875417     A.U. after    8 cycles
 SCF Done:  E(RB3LYP) =  -495.852875667     A.U. after    7 cycles
 SCF Done:  E(RB3LYP) =  -495.852876480     A.U. after    8 cycles
 SCF Done:  E(RB3LYP) =  -495.852877788     A.U. after    9 cycles
 SCF Done:  E(RB3LYP) =  -495.852878444     A.U. after    8 cycles
 Optimization completed.
    -- Stationary point found.
 Normal termination of Gaussian 09 at Mon Feb 26 22:39:14 2018.

 --------------------------------------------------------------------
 #N Geom=AllCheck Guess=TCheck SCRF=Check GenChk RB3LYP/6-31G(d) Freq
 --------------------------------------------------------------------

 Structure from the checkpoint file:  frag0-conf1.chk
 ----------------------------
 Optimization for frag0-conf1
 ----------------------------
 Charge =  0 Multiplicity = 1

                         Standard orientation:
 ---------------------------------------------------------------------
 Center     Atomic      Atomic             Coordinates (Angstroms)
 Number     Number       Type             X           Y           Z
 ---------------------------------------------------------------------
      1          6           0        2.319201   -0.066191   -0.235613
      2          6           0       -1.336191   -0.297688    0.060344
      3          6           0        3.361835   -1.142366    0.028963
      4          6           0       -0.076010    1.720906    0.956810
      5          6           0       -3.763240   -0.335789   -0.412524
      6          6           0       -0.054586    0.545854   -0.041146
      7          7           0       -2.449751    0.284330   -0.459697
      8          7           0        1.059410   -0.349493    0.197971
      9          8           0        2.599187    0.989070   -0.798623
     10          8           0       -1.336814   -1.402987    0.597847
     11          1           0        3.804344   -1.446408   -0.924790
     12          1           0        4.164368   -0.714686    0.637982
     13          1           0        2.962526   -2.026178    0.535769
     14          1           0       -0.186698    1.350468    1.981208
     15          1           0        0.865620    2.269013    0.873730
     16          1           0       -0.900726    2.411410    0.745770
     17          1           0       -4.150867   -0.515802   -1.421855
     18          1           0       -4.476396    0.291204    0.135021
     19          1           0       -3.655091   -1.290335    0.103542
     20          1           0        0.045565    0.954344   -1.054989
     21          1           0       -2.355365    1.184068   -0.909253
     22          1           0        0.810064   -1.247968    0.595144
 ---------------------------------------------------------------------

 SCF Done:  E(RB3LYP) =  -495.852878444     A.U. after    1 cycles

 Isotropic polarizability for W=    0.000000       81.84 Bohr**3.
 End of Minotr Frequency-dependent properties file   721 does not exist.

                     1                      2                      3
                     A                      A                      A
 Frequencies --    36.3753                50.3953                66.4961
 Red. masses --     3.4422                 1.1994                 2.9980
 Frc consts  --     0.0027                 0.0018                 0.0078
 IR Inten    --     2.1617                 0.2873                 8.1483

                     4                      5                      6
                     A                      A                      A
 Frequencies --    72.5814                98.3505               134.9837
 Red. masses --     1.3575                 2.7524                 2.9614
 Frc consts  --     0.0042                 0.0157                 0.0318
 IR Inten    --     0.4844                 8.3849                 0.4543

                     7                      8                      9
                     A                      A                      A
 Frequencies --   137.5919               230.3129               245.6890
 Red. masses --     3.5607                 3.6307                 1.2079
 Frc consts  --     0.0397                 0.1135                 0.0430
 IR Inten    --    14.5770                 3.1699                 2.6920

                    10                     11                     12
                     A                      A                      A
 Frequencies --   284.5031               307.4191               378.1148
 Red. masses --     2.6545                 4.5979                 4.2374
 Frc consts  --     0.1266                 0.2560                 0.3569
 IR Inten    --     9.0239                 4.3291                22.5050

                    13                     14                     15
                     A                      A                      A
 Frequencies --   399.8499               488.5836               513.9194
 Red. masses --     3.3145                 1.1704                 3.0433
 Frc consts  --     0.3122                 0.1646                 0.4736
 IR Inten    --    19.7926                61.7041                11.0918

                    16                     17                     18
                     A                      A                      A
 Frequencies --   532.7772               618.8461               657.3305
 Red. masses --     1.4743                 4.2249                 1.8205
 Frc consts  --     0.2466                 0.9533                 0.4635
 IR Inten    --    91.8747                 8.3940                 7.0976

                    19                     20                     21
                     A                      A                      A
 Frequencies --   688.9305               751.6734               865.8132
 Red. masses --     3.5893                 3.6730                 2.6496
 Frc consts  --     1.0037                 1.2227                 1.1703
 IR Inten    --     0.7498                 3.2276                 1.5838

                    22                     23                     24
                     A                      A                      A
 Frequencies --   918.9976               989.0725              1017.1762
 Red. masses --     2.3884                 3.2873                 1.5469
 Frc consts  --     1.1885                 1.8947                 0.9430
 IR Inten    --     2.2237                30.6723                 2.6608

                    25                     26                     27
                     A                      A                      A
 Frequencies --  1058.5214              1069.3788              1087.1605
 Red. masses --     3.2932                 1.7145                 1.6196
 Frc consts  --     2.1740                 1.1552                 1.1278
 IR Inten    --     7.3895                 8.5160                 3.3889

                    28                     29                     30
                     A                      A                      A
 Frequencies --  1114.9081              1162.3783              1180.8095
 Red. masses --     2.5656                 1.2804                 1.6419
 Frc consts  --     1.8790                 1.0193                 1.3488
 IR Inten    --     2.0805                 1.1843                40.6349

                    31                     32                     33
                     A                      A                      A
 Frequencies --  1202.5532              1244.3629              1274.7361
 Red. masses --     3.0269                 1.6048                 1.7689
 Frc consts  --     2.5790                 1.4641                 1.6935
 IR Inten    --    25.0686                64.7688                17.0876

                    34                     35                     36
                     A                      A                      A
 Frequencies --  1350.1364              1390.6897              1425.5582
 Red. masses --     1.7175                 1.3138                 1.2333
 Frc consts  --     1.8446                 1.4971                 1.4767
 IR Inten    --    68.8620                 7.2055                13.4326

                    37                     38                     39
                     A                      A                      A
 Frequencies --  1427.9589              1462.1846              1502.1993
 Red. masses --     1.2724                 1.1749                 1.0462
 Frc consts  --     1.5286                 1.4800                 1.3910
 IR Inten    --    12.4066                19.8230                 5.5052

                    40                     41                     42
                     A                      A                      A
 Frequencies --  1505.9277              1516.3732              1522.1571
 Red. masses --     1.1490                 1.0940                 1.1765
 Frc consts  --     1.5353                 1.4822                 1.6060
 IR Inten    --   131.6162                24.2645               108.2057

                    43                     44                     45
                     A                      A                      A
 Frequencies --  1529.3804              1533.7096              1550.0098
 Red. masses --     1.0451                 1.0531                 1.8643
 Frc consts  --     1.4402                 1.4595                 2.6390
 IR Inten    --     7.4199                15.5472               294.4290

                    46                     47                     48
                     A                      A                      A
 Frequencies --  1593.4167              1764.5334              1780.9511
 Red. masses --     1.7867                10.2851                 8.2392
 Frc consts  --     2.6728                18.8677                15.3971
 IR Inten    --   117.2366               350.5924                75.8146

                    49                     50                     51
                     A                      A                      A
 Frequencies --  3051.0636              3053.6493              3057.0059
 Red. masses --     1.0394                 1.0801                 1.0371
 Frc consts  --     5.7010                 5.9342                 5.7102
 IR Inten    --    69.2360                 5.3154                23.9601

                    52                     53                     54
                     A                      A                      A
 Frequencies --  3064.8281              3104.3351              3125.9800
 Red. masses --     1.0352                 1.1062                 1.1016
 Frc consts  --     5.7288                 6.2811                 6.3423
 IR Inten    --     7.3369                30.6464                30.4285

                    55                     56                     57
                     A                      A                      A
 Frequencies --  3138.7579              3142.2914              3156.5354
 Red. masses --     1.1010                 1.1045                 1.1027
 Frc consts  --     6.3908                 6.4256                 6.4736
 IR Inten    --     7.5466                19.0981                 8.1529

                    58                     59                     60
                     A                      A                      A
 Frequencies --  3180.3023              3585.5782              3624.3948
 Red. masses --     1.0984                 1.0776                 1.0774
 Frc consts  --     6.5456                 8.1625                 8.3384
 IR Inten    --     0.8975                84.8057                22.5633

 - Thermochemistry -
 -------------------
 Temperature   298.150 Kelvin.  Pressure   1.00000 Atm.
 Atom     1 has atomic number  6 and mass  12.00000

 Molecular mass:   144.08988 amu.
 Principal axes and moments of inertia in atomic units:
                           1         2         3
     Eigenvalues --   631.428012757.908353074.02332
           X            0.99969  -0.02246   0.01060
           Y            0.02198   0.99879   0.04394
           Z           -0.01157  -0.04369   0.99898
 This molecule is an asymmetric top.
 Rotational symmetry number  1.
 Warning -- assumption of classical behavior for rotation
           may cause significant error
 Rotational temperatures (Kelvin)      0.13717     0.03141     0.02818
 Rotational constants (GHZ):           2.85819     0.65439     0.58709
 Zero-point vibrational energy     490591.5 (Joules/Mol)
                                  117.25419 (Kcal/Mol)
 Warning -- explicit consideration of  17 degrees of freedom as
           vibrations may cause significant error
 Vibrational temperatures:     52.34    72.51    95.67   104.43   141.50
          (Kelvin)            194.21   197.96   331.37   353.49   409.34
                              442.31   544.02   575.29   702.96   739.41
                              766.55   890.38   945.75   991.22  1081.49
                             1245.71  1322.23  1423.05  1463.49  1522.97
                             1538.60  1564.18  1604.10  1672.40  1698.92
                             1730.20  1790.36  1834.06  1942.54  2000.89
                             2051.06  2054.51  2103.75  2161.33  2166.69
                             2181.72  2190.04  2200.43  2206.66  2230.12
                             2292.57  2538.77  2562.39  4389.79  4393.51
                             4398.34  4409.60  4466.44  4497.58  4515.97
                             4521.05  4541.54  4575.74  5158.84  5214.69

 Zero-point correction=                           0.186856 (Hartree/Particle)
 Thermal correction to Energy=                    0.199133
 Thermal correction to Enthalpy=                  0.200077
 Thermal correction to Gibbs Free Energy=         0.147080
 Sum of electronic and zero-point Energies=           -495.666022
 Sum of electronic and thermal Energies=              -495.653745
 Sum of electronic and thermal Enthalpies=            -495.652801
 Sum of electronic and thermal Free Energies=         -495.705798

                     E (Thermal)             CV                S
                      KCal/Mol        Cal/Mol-Kelvin    Cal/Mol-Kelvin
 Total                  124.958             41.772            111.542
 Electronic               0.000              0.000              0.000
 Translational            0.889              2.981             40.807
 Rotational               0.889              2.981             30.061
 Vibrational            123.180             35.810             40.674
 Vibration     1          0.594              1.982              5.447
 Vibration     2          0.595              1.977              4.802
 Vibration     3          0.598              1.970              4.254
 Vibration     4          0.599              1.967              4.082
 Vibration     5          0.604              1.950              3.487
 Vibration     6          0.613              1.918              2.874
 Vibration     7          0.614              1.916              2.837
 Vibration     8          0.652              1.795              1.877
 Vibration     9          0.660              1.770              1.761
 Vibration    10          0.683              1.702              1.506
 Vibration    11          0.697              1.660              1.376
 Vibration    12          0.748              1.517              1.047
 Vibration    13          0.766              1.470              0.963
 Vibration    14          0.844              1.275              0.687
 Vibration    15          0.869              1.219              0.624
 Vibration    16          0.888              1.178              0.581
 Vibration    17          0.979              0.992              0.418

 Optimization completed.
    -- Stationary point found.
 Normal termination of Gaussian 09 at Mon Feb 26 22:51:53 2018.
