 Gaussian 09, Revision C.01,
 Gaussian 09:  AM64L-G09RevC.01 23-Sep-2011

 ----------------------------------------------------------------------
 #HF/6-31G* Geom=AllCheck Guess=Read Pop=(MK,ReadRadii) Integral=(Grid=
 UltraFine) iop(6/33=2)
 ----------------------------------------------------------------------

 Structure from the checkpoint file:  frag0-conf0.chk
 ----------------------------
 Optimization for frag0-conf0
 ----------------------------
 Charge =  0 Multiplicity = 1

                         Standard orientation:
 ---------------------------------------------------------------------
 Center     Atomic      Atomic             Coordinates (Angstroms)
 Number     Number       Type             X           Y           Z
 ---------------------------------------------------------------------
      1          6           0        2.319099   -0.066258   -0.235966
      2          6           0       -1.336216   -0.297312    0.061077
      3          6           0        3.361557   -1.142687    0.028463
      4          6           0       -0.075933    1.720925    0.957620
      5          6           0       -3.762786   -0.336464   -0.414254
      6          6           0       -0.054536    0.546160   -0.040607
      7          7           0       -2.449578    0.284375   -0.459725
      8          7           0        1.059415   -0.349322    0.198089
      9          8           0        2.598939    0.988662   -0.799635
     10          8           0       -1.337057   -1.401871    0.600064
     11          1           0        3.799678   -1.451230   -0.925894
     12          1           0        4.167109   -0.713593    0.632423
     13          1           0        2.963147   -2.023981    0.540349
     14          1           0       -0.186367    1.350175    1.981944
     15          1           0        0.865565    2.269281    0.874597
     16          1           0       -0.900905    2.411219    0.746931
     17          1           0       -4.147655   -0.520319   -1.423998
     18          1           0       -4.477747    0.292044    0.129118
     19          1           0       -3.655434   -1.289186    0.105307
     20          1           0        0.045584    0.954789   -1.054390
     21          1           0       -2.354335    1.182074   -0.913154
     22          1           0        0.810335   -1.247161    0.596791
 ---------------------------------------------------------------------

 SCF Done:  E(RHF) =  -492.856075552     A.U. after   13 cycles

 The electronic state is 1-A.
 Alpha  occ. eigenvalues --  -20.53847 -20.51629 -15.60351 -15.58278 -11.36516
 Alpha  occ. eigenvalues --  -11.35045 -11.28735 -11.26995 -11.23453 -11.22952
 Alpha  occ. eigenvalues --   -1.39066  -1.36736  -1.23973  -1.22752  -1.05208
 Alpha  occ. eigenvalues --   -0.98764  -0.95992  -0.88218  -0.80197  -0.77921
 Alpha  occ. eigenvalues --   -0.72709  -0.67096  -0.65425  -0.64028  -0.63001
 Alpha  occ. eigenvalues --   -0.61408  -0.59766  -0.58326  -0.56494  -0.56215
 Alpha  occ. eigenvalues --   -0.55558  -0.54209  -0.52642  -0.52079  -0.48864
 Alpha  occ. eigenvalues --   -0.43102  -0.41288  -0.40213  -0.38147
 Alpha virt. eigenvalues --    0.18009   0.20273   0.21069   0.23918   0.26007
 Alpha virt. eigenvalues --    0.27782   0.28859   0.29799   0.30912   0.31311
 Alpha virt. eigenvalues --    0.32403   0.32941   0.33758   0.34399   0.36119

 Mulliken atomic charges:
              1
     1  C    0.767479
     2  C    0.785680
     3  C   -0.574073
     4  C   -0.482992
     5  C   -0.289124
     6  C   -0.031597
     7  N   -0.800565
     8  N   -0.830171
     9  O   -0.639581
    10  O   -0.650123
    11  H    0.205294
    12  H    0.205480
    13  H    0.175176
    14  H    0.177085
    15  H    0.216685
    16  H    0.151746
    17  H    0.174123
    18  H    0.173414
    19  H    0.232278
    20  H    0.215603
    21  H    0.390565
    22  H    0.427617
 Sum of Mulliken atomic charges =   0.00000

 Dipole moment (field-independent basis, Debye):
    X=             -2.7378    Y=              0.1799    Z=             -0.0651  Tot=              2.7445
 Quadrupole moment (field-independent basis, Debye-Ang):
   XX=            -55.4200   YY=            -63.2252   ZZ=            -61.7440
   XY=            -13.0221   XZ=              8.1990   YZ=              2.5128

 Normal termination of Gaussian 09 at Mon Feb 26 23:17:06 2018.
