 Gaussian 09, Revision C.01,
 Gaussian 09:  AM64L-G09RevC.01 23-Sep-2011

 ---------------------------------------------------------
 #B3LYP/6-31G* Integral=(Grid=UltraFine) freq Opt pop=none
 ---------------------------------------------------------

 99/9=1/99;
 ----------------------------
 Optimization for frag0-conf0
 ----------------------------
 Charge =  0 Multiplicity = 1

 SCF Done:  E(RB3LYP) =  -495.849589160     A.U. after   14 cycles
 SCF Done:  E(RB3LYP) =  -495.852067712     A.U. after   12 cycles
 SCF Done:  E(RB3LYP) =  -495.852203898     A.U. after   11 cycles
 SCF Done:  E(RB3LYP) =  -495.852154579     A.U. after   11 cycles
 SCF Done:  E(RB3LYP) =  -495.852297765     A.U. after   11 cycles
 SCF Done:  E(RB3LYP) =  -495.852319473     A.U. after   10 cycles
 SCF Done:  E(RB3LYP) =  -495.852365445     A.U. after   11 cycles
 SCF Done:  E(RB3LYP) =  -495.852393919     A.U. after   11 cycles
 SCF Done:  E(RB3LYP) =  -495.852415233     A.U. after   10 cycles
 SCF Done:  E(RB3LYP) =  -495.852458145     A.U. after   11 cycles
 SCF Done:  E(RB3LYP) =  -495.852683494     A.U. after   11 cycles
 SCF Done:  E(RB3LYP) =  -495.852742622     A.U. after   11 cycles
 SCF Done:  E(RB3LYP) =  -495.852788328     A.U. after   11 cycles
 SCF Done:  E(RB3LYP) =  -495.852834888     A.U. after   10 cycles
 SCF Done:  E(RB3LYP) =  -495.852820214     A.U. after   13 cycles
 SCF Done:  E(RB3LYP) =  -495.852861349     A.U. after   12 cycles
 SCF Done:  E(RB3LYP) =  -495.852873183     A.U. after    9 cycles
 SCF Done:  E(RB3LYP) =  -495.852877400     A.U. after    9 cycles
 SCF Done:  E(RB3LYP) =  -495.852878358     A.U. after    9 cycles
 Optimization completed.
    -- Stationary point found.
 Normal termination of Gaussian 09 at Mon Feb 26 22:17:39 2018.

 --------------------------------------------------------------------
 #N Geom=AllCheck Guess=TCheck SCRF=Check GenChk RB3LYP/6-31G(d) Freq
 --------------------------------------------------------------------

 Structure from the checkpoint file:  frag0-conf0.chk
 ----------------------------
 Optimization for frag0-conf0
 ----------------------------
 Charge =  0 Multiplicity = 1

                         Standard orientation:
 ---------------------------------------------------------------------
 Center     Atomic      Atomic             Coordinates (Angstroms)
 Number     Number       Type             X           Y           Z
 ---------------------------------------------------------------------
      1          6           0        2.319099   -0.066258   -0.235966
      2          6           0       -1.336216   -0.297312    0.061077
      3          6           0        3.361557   -1.142687    0.028463
      4          6           0       -0.075933    1.720925    0.957620
      5          6           0       -3.762786   -0.336464   -0.414254
      6          6           0       -0.054536    0.546160   -0.040607
      7          7           0       -2.449578    0.284375   -0.459725
      8          7           0        1.059415   -0.349322    0.198089
      9          8           0        2.598939    0.988662   -0.799635
     10          8           0       -1.337057   -1.401871    0.600064
     11          1           0        3.799678   -1.451230   -0.925894
     12          1           0        4.167109   -0.713593    0.632423
     13          1           0        2.963147   -2.023981    0.540349
     14          1           0       -0.186367    1.350175    1.981944
     15          1           0        0.865565    2.269281    0.874597
     16          1           0       -0.900905    2.411219    0.746931
     17          1           0       -4.147655   -0.520319   -1.423998
     18          1           0       -4.477747    0.292044    0.129118
     19          1           0       -3.655434   -1.289186    0.105307
     20          1           0        0.045584    0.954789   -1.054390
     21          1           0       -2.354335    1.182074   -0.913154
     22          1           0        0.810335   -1.247161    0.596791
 ---------------------------------------------------------------------

 SCF Done:  E(RB3LYP) =  -495.852878358     A.U. after    1 cycles

 Isotropic polarizability for W=    0.000000       81.84 Bohr**3.
 End of Minotr Frequency-dependent properties file   721 does not exist.

                     1                      2                      3
                     A                      A                      A
 Frequencies --    36.3494                50.4284                66.3595
 Red. masses --     3.4551                 1.2012                 2.9794
 Frc consts  --     0.0027                 0.0018                 0.0077
 IR Inten    --     2.1537                 0.2829                 8.1468

                     4                      5                      6
                     A                      A                      A
 Frequencies --    72.5963                98.3003               134.9502
 Red. masses --     1.3565                 2.7522                 2.9650
 Frc consts  --     0.0042                 0.0157                 0.0318
 IR Inten    --     0.4925                 8.3806                 0.4333

                     7                      8                      9
                     A                      A                      A
 Frequencies --   137.5685               230.3245               245.7241
 Red. masses --     3.5598                 3.6262                 1.2101
 Frc consts  --     0.0397                 0.1133                 0.0430
 IR Inten    --    14.5961                 3.1274                 2.7338

                    10                     11                     12
                     A                      A                      A
 Frequencies --   284.3680               307.3877               378.0522
 Red. masses --     2.6440                 4.6070                 4.2352
 Frc consts  --     0.1260                 0.2565                 0.3566
 IR Inten    --     9.1176                 4.2879                22.4760

                    13                     14                     15
                     A                      A                      A
 Frequencies --   399.7984               488.6945               513.8855
 Red. masses --     3.3173                 1.1699                 3.0388
 Frc consts  --     0.3124                 0.1646                 0.4728
 IR Inten    --    19.7468                61.4368                11.1560

                    16                     17                     18
                     A                      A                      A
 Frequencies --   532.4920               618.8584               657.2819
 Red. masses --     1.4733                 4.2334                 1.8208
 Frc consts  --     0.2461                 0.9553                 0.4635
 IR Inten    --    92.1791                 8.3580                 7.0506

                    19                     20                     21
                     A                      A                      A
 Frequencies --   688.9109               751.7538               865.8153
 Red. masses --     3.5971                 3.6721                 2.6505
 Frc consts  --     1.0058                 1.2227                 1.1707
 IR Inten    --     0.7400                 3.1967                 1.5838

                    22                     23                     24
                     A                      A                      A
 Frequencies --   918.9966               989.0561              1017.1722
 Red. masses --     2.3875                 3.2893                 1.5468
 Frc consts  --     1.1880                 1.8958                 0.9429
 IR Inten    --     2.2211                30.6422                 2.6667

                    25                     26                     27
                     A                      A                      A
 Frequencies --  1058.5141              1069.3738              1087.1249
 Red. masses --     3.2942                 1.7145                 1.6183
 Frc consts  --     2.1747                 1.1552                 1.1268
 IR Inten    --     7.4107                 8.5056                 3.4054

                    28                     29                     30
                     A                      A                      A
 Frequencies --  1114.9164              1162.3550              1180.8359
 Red. masses --     2.5673                 1.2805                 1.6420
 Frc consts  --     1.8802                 1.0193                 1.3490
 IR Inten    --     2.0879                 1.2122                40.5984

                    31                     32                     33
                     A                      A                      A
 Frequencies --  1202.5840              1244.2984              1274.7163
 Red. masses --     3.0266                 1.6049                 1.7693
 Frc consts  --     2.5790                 1.4640                 1.6938
 IR Inten    --    25.0116                64.8171                17.1028

                    34                     35                     36
                     A                      A                      A
 Frequencies --  1350.1646              1390.6915              1425.5458
 Red. masses --     1.7167                 1.3141                 1.2335
 Frc consts  --     1.8439                 1.4975                 1.4769
 IR Inten    --    68.8143                 7.3286                13.4940

                    37                     38                     39
                     A                      A                      A
 Frequencies --  1427.9475              1462.1928              1502.2135
 Red. masses --     1.2723                 1.1749                 1.0461
 Frc consts  --     1.5285                 1.4800                 1.3909
 IR Inten    --    12.3748                19.8013                 5.6054

                    40                     41                     42
                     A                      A                      A
 Frequencies --  1505.9634              1516.3987              1522.1603
 Red. masses --     1.1491                 1.0939                 1.1765
 Frc consts  --     1.5355                 1.4821                 1.6060
 IR Inten    --   131.5970                23.8412               108.4046

                    43                     44                     45
                     A                      A                      A
 Frequencies --  1529.3636              1533.6496              1550.0124
 Red. masses --     1.0452                 1.0531                 1.8642
 Frc consts  --     1.4404                 1.4593                 2.6388
 IR Inten    --     7.4730                15.5418               294.0617

                    46                     47                     48
                     A                      A                      A
 Frequencies --  1593.3913              1764.6456              1781.0468
 Red. masses --     1.7864                10.2866                 8.2408
 Frc consts  --     2.6722                18.8729                15.4017
 IR Inten    --   117.3441               350.8131                75.7793

                    49                     50                     51
                     A                      A                      A
 Frequencies --  3051.0369              3053.7241              3057.0152
 Red. masses --     1.0392                 1.0803                 1.0371
 Frc consts  --     5.6998                 5.9354                 5.7105
 IR Inten    --    69.0737                 5.5048                23.8570

                    52                     53                     54
                     A                      A                      A
 Frequencies --  3064.8305              3104.2657              3125.9723
 Red. masses --     1.0352                 1.1062                 1.1016
 Frc consts  --     5.7288                 6.2808                 6.3425
 IR Inten    --     7.3447                30.6476                30.4037

                    55                     56                     57
                     A                      A                      A
 Frequencies --  3138.8302              3142.2618              3156.4556
 Red. masses --     1.1010                 1.1045                 1.1027
 Frc consts  --     6.3911                 6.4254                 6.4732
 IR Inten    --     7.5449                19.0993                 8.1843

                    58                     59                     60
                     A                      A                      A
 Frequencies --  3180.4023              3585.9433              3624.4056
 Red. masses --     1.0984                 1.0776                 1.0774
 Frc consts  --     6.5459                 8.1641                 8.3385
 IR Inten    --     0.8990                84.6703                22.5913

 - Thermochemistry -
 -------------------
 Temperature   298.150 Kelvin.  Pressure   1.00000 Atm.
 Atom     1 has atomic number  6 and mass  12.00000

 Molecular mass:   144.08988 amu.
 Principal axes and moments of inertia in atomic units:
                           1         2         3
     Eigenvalues --   631.705792757.940513073.44198
           X            0.99969  -0.02245   0.01064
           Y            0.02196   0.99879   0.04410
           Z           -0.01162  -0.04385   0.99897
 This molecule is an asymmetric top.
 Rotational symmetry number  1.
 Warning -- assumption of classical behavior for rotation
           may cause significant error
 Rotational temperatures (Kelvin)      0.13711     0.03141     0.02818
 Rotational constants (GHZ):           2.85693     0.65438     0.58721
 Zero-point vibrational energy     490590.8 (Joules/Mol)
                                  117.25401 (Kcal/Mol)
 Warning -- explicit consideration of  17 degrees of freedom as
           vibrations may cause significant error
 Vibrational temperatures:     52.30    72.56    95.48   104.45   141.43
          (Kelvin)            194.16   197.93   331.39   353.54   409.14
                              442.26   543.93   575.22   703.12   739.37
                              766.14   890.40   945.68   991.19  1081.60
                             1245.71  1322.23  1423.03  1463.48  1522.96
                             1538.59  1564.13  1604.11  1672.37  1698.96
                             1730.25  1790.27  1834.03  1942.58  2000.89
                             2051.04  2054.50  2103.77  2161.35  2166.74
                             2181.76  2190.05  2200.41  2206.58  2230.12
                             2292.53  2538.93  2562.53  4389.76  4393.62
                             4398.36  4409.60  4466.34  4497.57  4516.07
                             4521.01  4541.43  4575.88  5159.37  5214.70

 Zero-point correction=                           0.186856 (Hartree/Particle)
 Thermal correction to Energy=                    0.199134
 Thermal correction to Enthalpy=                  0.200078
 Thermal correction to Gibbs Free Energy=         0.147077
 Sum of electronic and zero-point Energies=           -495.666022
 Sum of electronic and thermal Energies=              -495.653745
 Sum of electronic and thermal Enthalpies=            -495.652801
 Sum of electronic and thermal Free Energies=         -495.705801

                     E (Thermal)             CV                S
                      KCal/Mol        Cal/Mol-Kelvin    Cal/Mol-Kelvin
 Total                  124.958             41.773            111.549
 Electronic               0.000              0.000              0.000
 Translational            0.889              2.981             40.807
 Rotational               0.889              2.981             30.061
 Vibrational            123.181             35.811             40.681
 Vibration     1          0.594              1.982              5.449
 Vibration     2          0.595              1.977              4.801
 Vibration     3          0.598              1.970              4.259
 Vibration     4          0.599              1.967              4.082
 Vibration     5          0.604              1.950              3.488
 Vibration     6          0.613              1.918              2.874
 Vibration     7          0.614              1.916              2.837
 Vibration     8          0.652              1.795              1.876
 Vibration     9          0.660              1.770              1.761
 Vibration    10          0.683              1.703              1.507
 Vibration    11          0.697              1.660              1.376
 Vibration    12          0.748              1.517              1.047
 Vibration    13          0.766              1.471              0.963
 Vibration    14          0.845              1.275              0.687
 Vibration    15          0.869              1.219              0.624
 Vibration    16          0.887              1.178              0.582
 Vibration    17          0.979              0.992              0.418

 Normal termination of Gaussian 09 at Mon Feb 26 22:27:55 2018.
