 Gaussian 09, Revision C.01,
 Gaussian 09:  AM64L-G09RevC.01 23-Sep-2011

 ----------------------------------------------------------------------
 #HF/6-31G* Geom=AllCheck Guess=Read Pop=(MK,ReadRadii) Integral=(Grid=
 UltraFine) iop(6/33=2)
 ----------------------------------------------------------------------

 Structure from the checkpoint file:  frag12-conf1.chk
 -----------------------------
 Optimization for frag12-conf1
 -----------------------------
 Charge =  1 Multiplicity = 1

                         Standard orientation:
 ---------------------------------------------------------------------
 Center     Atomic      Atomic             Coordinates (Angstroms)
 Number     Number       Type             X           Y           Z
 ---------------------------------------------------------------------
      1          6           0        1.871728    0.355578   -0.126433
      2          6           0       -3.785941   -0.968053    0.520678
      3          6           0       -4.043292    0.565686    0.414090
      4          6           0       -2.429930   -1.214616   -0.174617
      5          6           0       -2.723032    1.192615   -0.111478
      6          6           0       -1.676944    0.089283    0.106981
      7          6           0        4.172506    0.730374    0.539290
      8          6           0        3.406804   -1.585630    0.096352
      9          6           0        0.717640   -0.600955   -0.538095
     10          7           0        3.073871   -0.163068    0.150658
     11          7           0       -0.462786    0.297384   -0.773555
     12          8           0        1.590607    1.562000   -0.079949
     13          1           0       -3.723304   -1.272431    1.570551
     14          1           0       -4.581669   -1.562355    0.065436
     15          1           0       -4.868910    0.793515   -0.264473
     16          1           0       -4.311328    0.982818    1.388230
     17          1           0       -1.918254   -2.111486    0.188683
     18          1           0       -2.571277   -1.325690   -1.259438
     19          1           0       -2.805840    1.406874   -1.186167
     20          1           0       -2.457141    2.129238    0.387252
     21          1           0       -1.291506    0.111774    1.132136
     22          1           0        4.527608    0.461440    1.539440
     23          1           0        3.814414    1.757912    0.539908
     24          1           0        4.998225    0.626494   -0.172083
     25          1           0        4.206595   -1.752870   -0.633168
     26          1           0        2.547816   -2.192885   -0.189421
     27          1           0        3.756120   -1.922406    1.078312
     28          1           0        0.940911   -1.155875   -1.451181
     29          1           0        0.469053   -1.311309    0.252205
     30          1           0       -0.754528    0.266728   -1.755067
     31          1           0       -0.036667    1.248603   -0.591899
 ---------------------------------------------------------------------

 SCF Done:  E(RHF) =  -535.439517571     A.U. after   13 cycles

 The electronic state is 1-A.
 Alpha  occ. eigenvalues --  -20.68948 -15.84154 -15.74904 -11.52211 -11.46932
 Alpha  occ. eigenvalues --  -11.44262 -11.40560 -11.37985 -11.37591 -11.37167
 Alpha  occ. eigenvalues --  -11.35210 -11.34965  -1.54729  -1.46426  -1.39792
 Alpha  occ. eigenvalues --   -1.26785  -1.17203  -1.11338  -1.10800  -1.10106
 Alpha  occ. eigenvalues --   -1.06376  -0.96955  -0.94440  -0.91090  -0.88852
 Alpha  occ. eigenvalues --   -0.85203  -0.83166  -0.82317  -0.79786  -0.79224
 Alpha  occ. eigenvalues --   -0.77171  -0.75553  -0.72408  -0.72087  -0.71542
 Alpha  occ. eigenvalues --   -0.69208  -0.68998  -0.66933  -0.66561  -0.65752
 Alpha  occ. eigenvalues --   -0.63920  -0.62616  -0.61191  -0.60676  -0.58956
 Alpha  occ. eigenvalues --   -0.58733  -0.51947
 Alpha virt. eigenvalues --    0.02236   0.03815   0.07104   0.08672   0.09275
 Alpha virt. eigenvalues --    0.12147   0.13603   0.13892   0.15242   0.15903
 Alpha virt. eigenvalues --    0.17056   0.17480   0.18006   0.18660   0.18916

 Mulliken atomic charges:
              1
     1  C    0.809910
     2  C   -0.343991
     3  C   -0.341716
     4  C   -0.339746
     5  C   -0.350463
     6  C   -0.030630
     7  C   -0.315578
     8  C   -0.308419
     9  C   -0.257317
    10  N   -0.656831
    11  N   -0.816328
    12  O   -0.661187
    13  H    0.197882
    14  H    0.215328
    15  H    0.210006
    16  H    0.207893
    17  H    0.199357
    18  H    0.179427
    19  H    0.181832
    20  H    0.221584
    21  H    0.235621
    22  H    0.202784
    23  H    0.253259
    24  H    0.203378
    25  H    0.218962
    26  H    0.184080
    27  H    0.218434
    28  H    0.264025
    29  H    0.263129
    30  H    0.442924
    31  H    0.512391
 Sum of Mulliken atomic charges =   1.00000

 Dipole moment (field-independent basis, Debye):
    X=              0.3818    Y=             -3.0881    Z=             -1.8184  Tot=              3.6040
 Quadrupole moment (field-independent basis, Debye-Ang):
   XX=            -35.1749   YY=            -70.7712   ZZ=            -66.6479
   XY=             -7.2733   XZ=              2.1511   YZ=              0.0012

 Normal termination of Gaussian 09 at Sat Feb 17 20:56:52 2018.
