 Gaussian 09, Revision C.01,
 Gaussian 09:  AM64L-G09RevC.01 23-Sep-2011

 ---------------------------------------------------------
 #B3LYP/6-31G* Integral=(Grid=UltraFine) freq Opt pop=none
 ---------------------------------------------------------

 99/9=1/99;
 -----------------------------
 Optimization for frag12-conf1
 -----------------------------
 Charge =  1 Multiplicity = 1

 SCF Done:  E(RB3LYP) =  -538.893847254     A.U. after   14 cycles
 SCF Done:  E(RB3LYP) =  -538.901420386     A.U. after   13 cycles
 SCF Done:  E(RB3LYP) =  -538.902574019     A.U. after   13 cycles
 SCF Done:  E(RB3LYP) =  -538.903534751     A.U. after   13 cycles
 SCF Done:  E(RB3LYP) =  -538.905098990     A.U. after   14 cycles
 SCF Done:  E(RB3LYP) =  -538.907912825     A.U. after   15 cycles
 SCF Done:  E(RB3LYP) =  -538.808915061     A.U. after   15 cycles
 SCF Done:  E(RB3LYP) =  -538.908132247     A.U. after   14 cycles
 SCF Done:  E(RB3LYP) =  -538.913241826     A.U. after   15 cycles
 SCF Done:  E(RB3LYP) =  -538.917191705     A.U. after   15 cycles
 SCF Done:  E(RB3LYP) =  -538.921639913     A.U. after    9 cycles
 SCF Done:  E(RB3LYP) =  -538.921641345     A.U. after    9 cycles
 SCF Done:  E(RB3LYP) =  -538.921639821     A.U. after    9 cycles
 SCF Done:  E(RB3LYP) =  -538.883325494     A.U. after   13 cycles
 SCF Done:  E(RB3LYP) =  -538.921641354     A.U. after   13 cycles
 SCF Done:  E(RB3LYP) =  -538.921641873     A.U. after    8 cycles
 SCF Done:  E(RB3LYP) =  -538.921642025     A.U. after    9 cycles
 SCF Done:  E(RB3LYP) =  -538.921642045     A.U. after    7 cycles
 SCF Done:  E(RB3LYP) =  -538.921642048     A.U. after    7 cycles
 Optimization completed.
    -- Stationary point found.
 Normal termination of Gaussian 09 at Fri Feb 16 19:36:58 2018.

 --------------------------------------------------------------------
 #N Geom=AllCheck Guess=TCheck SCRF=Check GenChk RB3LYP/6-31G(d) Freq
 --------------------------------------------------------------------

 Structure from the checkpoint file:  frag12-conf1.chk
 -----------------------------
 Optimization for frag12-conf1
 -----------------------------
 Charge =  1 Multiplicity = 1

                         Standard orientation:
 ---------------------------------------------------------------------
 Center     Atomic      Atomic             Coordinates (Angstroms)
 Number     Number       Type             X           Y           Z
 ---------------------------------------------------------------------
      1          6           0        1.871728    0.355578   -0.126433
      2          6           0       -3.785941   -0.968053    0.520678
      3          6           0       -4.043292    0.565686    0.414090
      4          6           0       -2.429930   -1.214616   -0.174617
      5          6           0       -2.723032    1.192615   -0.111478
      6          6           0       -1.676944    0.089283    0.106981
      7          6           0        4.172506    0.730374    0.539290
      8          6           0        3.406804   -1.585630    0.096352
      9          6           0        0.717640   -0.600955   -0.538095
     10          7           0        3.073871   -0.163068    0.150658
     11          7           0       -0.462786    0.297384   -0.773555
     12          8           0        1.590607    1.562000   -0.079949
     13          1           0       -3.723304   -1.272431    1.570551
     14          1           0       -4.581669   -1.562355    0.065436
     15          1           0       -4.868910    0.793515   -0.264473
     16          1           0       -4.311328    0.982818    1.388230
     17          1           0       -1.918254   -2.111486    0.188683
     18          1           0       -2.571277   -1.325690   -1.259438
     19          1           0       -2.805840    1.406874   -1.186167
     20          1           0       -2.457141    2.129238    0.387252
     21          1           0       -1.291506    0.111774    1.132136
     22          1           0        4.527608    0.461440    1.539440
     23          1           0        3.814414    1.757912    0.539908
     24          1           0        4.998225    0.626494   -0.172083
     25          1           0        4.206595   -1.752870   -0.633168
     26          1           0        2.547816   -2.192885   -0.189421
     27          1           0        3.756120   -1.922406    1.078312
     28          1           0        0.940911   -1.155875   -1.451181
     29          1           0        0.469053   -1.311309    0.252205
     30          1           0       -0.754528    0.266728   -1.755067
     31          1           0       -0.036667    1.248603   -0.591899
 ---------------------------------------------------------------------

 SCF Done:  E(RB3LYP) =  -538.921642048     A.U. after    1 cycles

 Isotropic polarizability for W=    0.000000      108.57 Bohr**3.
 End of Minotr Frequency-dependent properties file   721 does not exist.

                     1                      2                      3
                     A                      A                      A
 Frequencies --    17.4061                24.4924                58.2308
 Red. masses --     3.2509                 1.7485                 2.4369
 Frc consts  --     0.0006                 0.0006                 0.0049
 IR Inten    --     1.4631                 0.2516                 1.3150

                     4                      5                      6
                     A                      A                      A
 Frequencies --    63.6544                91.1464               101.4827
 Red. masses --     2.7541                 1.2432                 1.3063
 Frc consts  --     0.0066                 0.0061                 0.0079
 IR Inten    --     3.4421                 0.3001                 1.2809

                     7                      8                      9
                     A                      A                      A
 Frequencies --   129.4600               154.2127               222.1998
 Red. masses --     2.4984                 2.3485                 3.2252
 Frc consts  --     0.0247                 0.0329                 0.0938
 IR Inten    --     3.8440                 0.9176                 2.8114

                    10                     11                     12
                     A                      A                      A
 Frequencies --   228.3084               266.4258               299.6084
 Red. masses --     2.9826                 2.4601                 2.6781
 Frc consts  --     0.0916                 0.1029                 0.1416
 IR Inten    --     2.2334                 4.8709                10.3400

                    13                     14                     15
                     A                      A                      A
 Frequencies --   383.6375               412.1063               448.8279
 Red. masses --     2.9579                 2.6312                 2.2803
 Frc consts  --     0.2565                 0.2633                 0.2706
 IR Inten    --    21.5337                 1.8159                57.9048

                    16                     17                     18
                     A                      A                      A
 Frequencies --   527.9566               555.0114               576.7180
 Red. masses --     2.5200                 3.0366                 3.3569
 Frc consts  --     0.4139                 0.5511                 0.6578
 IR Inten    --     7.6054                27.5028                22.1363

                    19                     20                     21
                     A                      A                      A
 Frequencies --   620.5975               630.5932               770.5077
 Red. masses --     4.3759                 3.0096                 2.0360
 Frc consts  --     0.9930                 0.7051                 0.7122
 IR Inten    --    11.9101                 0.4791                11.7563

                    22                     23                     24
                     A                      A                      A
 Frequencies --   785.8333               821.8914               874.5523
 Red. masses --     1.6339                 1.6612                 3.4498
 Frc consts  --     0.5945                 0.6612                 1.5546
 IR Inten    --    20.8361                 2.8361                 2.4063

                    25                     26                     27
                     A                      A                      A
 Frequencies --   896.0993               919.0626               953.8048
 Red. masses --     2.4154                 1.9575                 2.7576
 Frc consts  --     1.1428                 0.9742                 1.4781
 IR Inten    --     0.4171                 5.0109                 0.7278

                    28                     29                     30
                     A                      A                      A
 Frequencies --   969.6668               978.1239               997.5300
 Red. masses --     2.7877                 1.7735                 1.4890
 Frc consts  --     1.5443                 0.9997                 0.8730
 IR Inten    --     2.7556                 9.4594                 8.8481

                    31                     32                     33
                     A                      A                      A
 Frequencies --  1012.7199              1038.6648              1043.7441
 Red. masses --     1.8345                 2.0735                 2.9610
 Frc consts  --     1.1085                 1.3180                 1.9005
 IR Inten    --     2.4813                10.1585                13.4827

                    34                     35                     36
                     A                      A                      A
 Frequencies --  1066.0664              1085.6168              1131.2042
 Red. masses --     2.5193                 1.4384                 1.2230
 Frc consts  --     1.6869                 0.9988                 0.9221
 IR Inten    --    10.8885                 9.5814                 0.0935

                    37                     38                     39
                     A                      A                      A
 Frequencies --  1133.8816              1183.4600              1184.8098
 Red. masses --     2.7281                 1.3742                 1.8537
 Frc consts  --     2.0666                 1.1340                 1.5332
 IR Inten    --    13.2731                 4.3984                78.9222

                    40                     41                     42
                     A                      A                      A
 Frequencies --  1205.2766              1216.0602              1242.0305
 Red. masses --     1.2083                 1.4327                 1.2594
 Frc consts  --     1.0342                 1.2483                 1.1447
 IR Inten    --     2.2768                 2.1708                 6.7002

                    43                     44                     45
                     A                      A                      A
 Frequencies --  1273.1909              1279.2893              1284.4265
 Red. masses --     4.0466                 1.2047                 1.2622
 Frc consts  --     3.8648                 1.1617                 1.2268
 IR Inten    --    42.0009                10.2718                50.4284

                    46                     47                     48
                     A                      A                      A
 Frequencies --  1311.0185              1321.2794              1342.2196
 Red. masses --     1.1906                 1.3105                 1.2523
 Frc consts  --     1.2057                 1.3480                 1.3293
 IR Inten    --    69.8134                 3.3311                17.0595

                    49                     50                     51
                     A                      A                      A
 Frequencies --  1355.0776              1362.3566              1372.2499
 Red. masses --     1.2839                 1.2813                 1.4733
 Frc consts  --     1.3890                 1.4011                 1.6346
 IR Inten    --     0.3690                 2.1774                 3.3885

                    52                     53                     54
                     A                      A                      A
 Frequencies --  1389.4349              1443.0714              1451.3561
 Red. masses --     1.3483                 1.3665                 1.2491
 Frc consts  --     1.5337                 1.6766                 1.5503
 IR Inten    --    31.7506               330.6732                30.7727

                    55                     56                     57
                     A                      A                      A
 Frequencies --  1464.3908              1475.8792              1503.3917
 Red. masses --     1.1595                 1.9016                 1.2260
 Frc consts  --     1.4650                 2.4404                 1.6326
 IR Inten    --    15.9795                25.2677                13.8384

                    58                     59                     60
                     A                      A                      A
 Frequencies --  1506.9699              1513.2477              1516.3023
 Red. masses --     1.0378                 1.0870                 1.0817
 Frc consts  --     1.3886                 1.4665                 1.4653
 IR Inten    --     1.7726                 2.4591                20.9444

                    61                     62                     63
                     A                      A                      A
 Frequencies --  1525.9768              1527.2214              1527.5632
 Red. masses --     1.0899                 1.0445                 1.0832
 Frc consts  --     1.4953                 1.4353                 1.4892
 IR Inten    --     5.0997                15.7726                16.1608

                    64                     65                     66
                     A                      A                      A
 Frequencies --  1529.3042              1550.7240              1566.9962
 Red. masses --     1.1001                 1.1017                 1.4175
 Frc consts  --     1.5159                 1.5609                 2.0508
 IR Inten    --     9.5751                 1.3489                40.0114

                    67                     68                     69
                     A                      A                      A
 Frequencies --  1655.5582              1768.9430              2958.2992
 Red. masses --     1.1075                 5.2366                 1.0722
 Frc consts  --     1.7884                 9.6544                 5.5284
 IR Inten    --   110.6138               264.0422               472.7431

                    70                     71                     72
                     A                      A                      A
 Frequencies --  3035.3375              3041.6297              3065.1915
 Red. masses --     1.0691                 1.0707                 1.0364
 Frc consts  --     5.8034                 5.8361                 5.7371
 IR Inten    --     8.7205                25.2791                13.8059

                    73                     74                     75
                     A                      A                      A
 Frequencies --  3070.9501              3081.9098              3091.5504
 Red. masses --     1.0367                 1.0672                 1.0852
 Frc consts  --     5.7605                 5.9724                 6.1107
 IR Inten    --    22.1029                11.6554                 4.2370

                    76                     77                     78
                     A                      A                      A
 Frequencies --  3098.2905              3113.3268              3118.4202
 Red. masses --     1.0631                 1.0923                 1.0669
 Frc consts  --     6.0128                 6.2379                 6.1127
 IR Inten    --    19.7107                18.0077                 7.8905

                    79                     80                     81
                     A                      A                      A
 Frequencies --  3120.8135              3124.7268              3131.4644
 Red. masses --     1.0930                 1.1062                 1.1026
 Frc consts  --     6.2721                 6.3634                 6.3702
 IR Inten    --    11.1900                 9.0967                 1.6487

                    82                     83                     84
                     A                      A                      A
 Frequencies --  3132.5041              3147.0250              3174.7377
 Red. masses --     1.1065                 1.1054                 1.1094
 Frc consts  --     6.3970                 6.4501                 6.5878
 IR Inten    --     8.4911                21.9098                 0.0549

                    85                     86                     87
                     A                      A                      A
 Frequencies --  3179.9704              3210.3766              3464.1454
 Red. masses --     1.0994                 1.1006                 1.0767
 Frc consts  --     6.5504                 6.6831                 7.6124
 IR Inten    --    16.1780                 0.2717                43.1100

 - Thermochemistry -
 -------------------
 Temperature   298.150 Kelvin.  Pressure   1.00000 Atm.
 Atom     1 has atomic number  6 and mass  12.00000

 Molecular mass:   171.14974 amu.
 Principal axes and moments of inertia in atomic units:
                           1         2         3
     Eigenvalues --   758.739544926.319445392.32301
           X            0.99997  -0.00694   0.00157
           Y            0.00693   0.99996   0.00547
           Z           -0.00161  -0.00546   0.99998
 This molecule is an asymmetric top.
 Rotational symmetry number  1.
 Warning -- assumption of classical behavior for rotation
           may cause significant error
 Rotational temperatures (Kelvin)      0.11415     0.01758     0.01606
 Rotational constants (GHZ):           2.37860     0.36635     0.33469
 Zero-point vibrational energy     750661.4 (Joules/Mol)
                                  179.41239 (Kcal/Mol)
 Warning -- explicit consideration of  19 degrees of freedom as
           vibrations may cause significant error
 Vibrational temperatures:     25.04    35.24    83.78    91.58   131.14
          (Kelvin)            146.01   186.26   221.88   319.70   328.48
                              383.33   431.07   551.97   592.93   645.76
                              759.61   798.54   829.77   892.90   907.28
                             1108.59  1130.64  1182.52  1258.28  1289.29
                             1322.32  1372.31  1395.13  1407.30  1435.22
                             1457.08  1494.41  1501.71  1533.83  1561.96
                             1627.55  1631.40  1702.73  1704.67  1734.12
                             1749.64  1787.00  1831.84  1840.61  1848.00
                             1886.26  1901.02  1931.15  1949.65  1960.12
                             1974.36  1999.08  2076.26  2088.18  2106.93
                             2123.46  2163.04  2168.19  2177.22  2181.62
                             2195.54  2197.33  2197.82  2200.32  2231.14
                             2254.56  2381.98  2545.11  4256.33  4367.17
                             4376.22  4410.12  4418.41  4434.18  4448.05
                             4457.74  4479.38  4486.71  4490.15  4495.78
                             4505.47  4506.97  4527.86  4567.73  4575.26
                             4619.01  4984.13

 Zero-point correction=                           0.285912 (Hartree/Particle)
 Thermal correction to Energy=                    0.299657
 Thermal correction to Enthalpy=                  0.300601
 Thermal correction to Gibbs Free Energy=         0.242647
 Sum of electronic and zero-point Energies=           -538.635730
 Sum of electronic and thermal Energies=              -538.621985
 Sum of electronic and thermal Enthalpies=            -538.621041
 Sum of electronic and thermal Free Energies=         -538.678995

                     E (Thermal)             CV                S
                      KCal/Mol        Cal/Mol-Kelvin    Cal/Mol-Kelvin
 Total                  188.038             49.020            121.974
 Electronic               0.000              0.000              0.000
 Translational            0.889              2.981             41.320
 Rotational               0.889              2.981             31.378
 Vibrational            186.260             43.059             49.277
 Vibration     1          0.593              1.986              6.910
 Vibration     2          0.593              1.985              6.232
 Vibration     3          0.596              1.974              4.516
 Vibration     4          0.597              1.972              4.341
 Vibration     5          0.602              1.955              3.635
 Vibration     6          0.604              1.948              3.426
 Vibration     7          0.612              1.924              2.954
 Vibration     8          0.620              1.898              2.620
 Vibration     9          0.648              1.807              1.941
 Vibration    10          0.651              1.798              1.892
 Vibration    11          0.672              1.735              1.619
 Vibration    12          0.692              1.674              1.419
 Vibration    13          0.753              1.505              1.025
 Vibration    14          0.776              1.444              0.919
 Vibration    15          0.808              1.363              0.799
 Vibration    16          0.883              1.188              0.592
 Vibration    17          0.910              1.129              0.534
 Vibration    18          0.933              1.082              0.491
 Vibration    19          0.981              0.988              0.416

 Optimization completed.
    -- Stationary point found.
 Normal termination of Gaussian 09 at Fri Feb 16 19:57:08 2018.
