 Gaussian 09, Revision C.01,
 Gaussian 09:  AM64L-G09RevC.01 23-Sep-2011

 ---------------------------------------------------------
 #B3LYP/6-31G* Integral=(Grid=UltraFine) freq Opt pop=none
 ---------------------------------------------------------

 99/9=1/99;
 -----------------------------
 Optimization for frag30-conf1
 -----------------------------
 Charge =  0 Multiplicity = 1

 SCF Done:  E(RB3LYP) =  -495.615247393     A.U. after   15 cycles
 SCF Done:  E(RB3LYP) =  -495.617408534     A.U. after   12 cycles
 SCF Done:  E(RB3LYP) =  -495.617631011     A.U. after   11 cycles
 SCF Done:  E(RB3LYP) =  -495.617666012     A.U. after   11 cycles
 SCF Done:  E(RB3LYP) =  -495.617678423     A.U. after   10 cycles
 SCF Done:  E(RB3LYP) =  -495.617696228     A.U. after    9 cycles
 SCF Done:  E(RB3LYP) =  -495.617753646     A.U. after   11 cycles
 SCF Done:  E(RB3LYP) =  -495.617801437     A.U. after   11 cycles
 SCF Done:  E(RB3LYP) =  -495.617822960     A.U. after   10 cycles
 SCF Done:  E(RB3LYP) =  -495.617824318     A.U. after   10 cycles
 SCF Done:  E(RB3LYP) =  -495.617824965     A.U. after    9 cycles
 SCF Done:  E(RB3LYP) =  -495.617824990     A.U. after    7 cycles
 Optimization completed.
    -- Stationary point found.
 Normal termination of Gaussian 09 at Fri Feb 16 20:14:21 2018.

 --------------------------------------------------------------------
 #N Geom=AllCheck Guess=TCheck SCRF=Check GenChk RB3LYP/6-31G(d) Freq
 --------------------------------------------------------------------

 Structure from the checkpoint file:  frag30-conf1.chk
 -----------------------------
 Optimization for frag30-conf1
 -----------------------------
 Charge =  0 Multiplicity = 1

                         Standard orientation:
 ---------------------------------------------------------------------
 Center     Atomic      Atomic             Coordinates (Angstroms)
 Number     Number       Type             X           Y           Z
 ---------------------------------------------------------------------
      1          6           0        3.290897   -0.755838   -0.001217
      2          6           0        3.468997    0.629800   -0.001664
      3          6           0        1.998150   -1.267650    0.000213
      4          6           0        2.334543    1.435610   -0.000628
      5          6           0        0.916095   -0.376852    0.001083
      6          6           0       -2.800278   -0.055210   -0.000423
      7          6           0       -3.686662    1.182493   -0.000843
      8          6           0       -0.506921   -0.903569    0.002601
      9          7           0        1.084284    0.951456    0.000699
     10          7           0       -1.460514    0.181159    0.003884
     11          8           0       -3.263856   -1.191861   -0.003465
     12          1           0        4.147312   -1.424679   -0.001963
     13          1           0        4.459732    1.073483   -0.002765
     14          1           0        1.820560   -2.339787    0.000641
     15          1           0        2.424211    2.520361   -0.000888
     16          1           0       -3.127943    2.123683    0.002275
     17          1           0       -4.332400    1.154649   -0.884105
     18          1           0       -4.337261    1.151767    0.878740
     19          1           0       -0.667588   -1.549471   -0.872519
     20          1           0       -0.665250   -1.549857    0.877882
     21          1           0       -1.065832    1.113733    0.003608
 ---------------------------------------------------------------------

 SCF Done:  E(RB3LYP) =  -495.617824990     A.U. after    1 cycles

 Isotropic polarizability for W=    0.000000       94.83 Bohr**3.
 End of Minotr Frequency-dependent properties file   721 does not exist.

                     1                      2                      3
                     A                      A                      A
 Frequencies --    24.3563                46.3040                58.7111
 Red. masses --     4.0577                 4.1628                 1.1294
 Frc consts  --     0.0014                 0.0053                 0.0023
 IR Inten    --     0.0263                 3.2718                 2.2286

                     4                      5                      6
                     A                      A                      A
 Frequencies --   106.1071               159.8838               199.4196
 Red. masses --     4.1667                 3.7427                 2.4464
 Frc consts  --     0.0276                 0.0564                 0.0573
 IR Inten    --     8.9661                 3.3338                 8.6042

                     7                      8                      9
                     A                      A                      A
 Frequencies --   242.9728               309.8698               415.4567
 Red. masses --     8.4009                 3.9330                 3.3766
 Frc consts  --     0.2922                 0.2225                 0.3434
 IR Inten    --     2.3547                 0.0215                 1.2298

                    10                     11                     12
                     A                      A                      A
 Frequencies --   468.9936               479.8752               516.0264
 Red. masses --     2.3503                 3.3259                 1.4594
 Frc consts  --     0.3046                 0.4513                 0.2290
 IR Inten    --    16.9402                18.1916                54.6043

                    13                     14                     15
                     A                      A                      A
 Frequencies --   593.9853               628.2100               650.6044
 Red. masses --     5.5508                 6.0177                 1.8296
 Frc consts  --     1.1539                 1.3992                 0.4563
 IR Inten    --     4.1806                 0.2359                 5.2868

                    16                     17                     18
                     A                      A                      A
 Frequencies --   658.1598               742.0955               771.9813
 Red. masses --     5.0243                 3.5999                 1.2198
 Frc consts  --     1.2823                 1.1680                 0.4283
 IR Inten    --     2.5520                11.0390                30.6748

                    19                     20                     21
                     A                      A                      A
 Frequencies --   832.7039               903.7032               972.2756
 Red. masses --     4.5637                 1.2770                 1.3889
 Frc consts  --     1.8644                 0.6145                 0.7736
 IR Inten    --     1.7640                 0.0537                 0.0515

                    22                     23                     24
                     A                      A                      A
 Frequencies --   988.6226              1006.6462              1008.2835
 Red. masses --     4.0015                 1.3056                 1.8191
 Frc consts  --     2.3043                 0.7795                 1.0896
 IR Inten    --    13.6618                 0.0484                10.7133

                    25                     26                     27
                     A                      A                      A
 Frequencies --  1017.0464              1022.3862              1070.1101
 Red. masses --     5.4326                 1.8505                 1.7062
 Frc consts  --     3.3109                 1.1396                 1.1512
 IR Inten    --     7.3468                 0.9106                 9.4408

                    28                     29                     30
                     A                      A                      A
 Frequencies --  1076.4101              1125.2378              1160.6187
 Red. masses --     2.3116                 1.7200                 3.2759
 Frc consts  --     1.5780                 1.2831                 2.5999
 IR Inten    --     4.6131                 1.8187                 1.5779

                    31                     32                     33
                     A                      A                      A
 Frequencies --  1186.5044              1238.8439              1252.0336
 Red. masses --     1.1381                 1.9008                 1.0762
 Frc consts  --     0.9440                 1.7187                 0.9940
 IR Inten    --     3.9864                21.4008                 0.0048

                    34                     35                     36
                     A                      A                      A
 Frequencies --  1278.6617              1317.3202              1330.8817
 Red. masses --     1.8795                 5.6299                 1.6258
 Frc consts  --     1.8105                 5.7562                 1.6967
 IR Inten    --     6.7394                12.9427                 1.1926

                    37                     38                     39
                     A                      A                      A
 Frequencies --  1396.4649              1426.7825              1480.8898
 Red. masses --     1.5956                 1.2947                 2.1859
 Frc consts  --     1.8333                 1.5529                 2.8244
 IR Inten    --     1.6472                16.3416                59.8394

                    40                     41                     42
                     A                      A                      A
 Frequencies --  1502.6090              1513.0243              1520.7827
 Red. masses --     1.0459                 1.1049                 1.6130
 Frc consts  --     1.3914                 1.4903                 2.1980
 IR Inten    --     5.0168                50.4280                78.8178

                    43                     44                     45
                     A                      A                      A
 Frequencies --  1535.5732              1549.6429              1631.1403
 Red. masses --     1.3523                 2.2384                 5.9571
 Frc consts  --     1.8787                 3.1670                 9.3383
 IR Inten    --    13.5058               450.5674                22.0338

                    46                     47                     48
                     A                      A                      A
 Frequencies --  1656.1235              1777.0379              3027.4289
 Red. masses --     5.3967                 9.5210                 1.0587
 Frc consts  --     8.7209                17.7143                 5.7172
 IR Inten    --    41.0085               262.0321                19.9193

                    49                     50                     51
                     A                      A                      A
 Frequencies --  3044.2781              3063.3627              3138.2601
 Red. masses --     1.1036                 1.0353                 1.1010
 Frc consts  --     6.0259                 5.7242                 6.3889
 IR Inten    --    18.4837                 8.6970                 8.2650

                    52                     53                     54
                     A                      A                      A
 Frequencies --  3139.5660              3177.7408              3190.6454
 Red. masses --     1.1042                 1.0890                 1.0879
 Frc consts  --     6.4125                 6.4791                 6.5254
 IR Inten    --    21.6784                20.8340                 2.9904

                    55                     56                     57
                     A                      A                      A
 Frequencies --  3204.5074              3218.7507              3592.8203
 Red. masses --     1.0933                 1.0975                 1.0780
 Frc consts  --     6.6150                 6.6992                 8.1984
 IR Inten    --    17.7951                16.7679               113.1429

 - Thermochemistry -
 -------------------
 Temperature   298.150 Kelvin.  Pressure   1.00000 Atm.
 Atom     1 has atomic number  6 and mass  12.00000

 Molecular mass:   150.07931 amu.
 Principal axes and moments of inertia in atomic units:
                           1         2         3
     Eigenvalues --   539.425693480.149473997.35927
           X            0.99984  -0.01812  -0.00001
           Y            0.01812   0.99984  -0.00008
           Z            0.00002   0.00008   1.00000
 This molecule is an asymmetric top.
 Rotational symmetry number  1.
 Warning -- assumption of classical behavior for rotation
           may cause significant error
 Rotational temperatures (Kelvin)      0.16057     0.02489     0.02167
 Rotational constants (GHZ):           3.34567     0.51858     0.45148
 Zero-point vibrational energy     452479.9 (Joules/Mol)
                                  108.14529 (Kcal/Mol)
 Warning -- explicit consideration of  13 degrees of freedom as
           vibrations may cause significant error
 Vibrational temperatures:     35.04    66.62    84.47   152.66   230.04
          (Kelvin)            286.92   349.58   445.83   597.75   674.78
                              690.43   742.45   854.61   903.85   936.07
                              946.94  1067.71  1110.71  1198.07  1300.23
                             1398.89  1422.41  1448.34  1450.69  1463.30
                             1470.98  1539.65  1548.71  1618.96  1669.87
                             1707.11  1782.42  1801.39  1839.71  1895.33
                             1914.84  2009.20  2052.82  2130.67  2161.92
                             2176.90  2188.06  2209.34  2229.59  2346.84
                             2382.79  2556.76  4355.79  4380.03  4407.49
                             4515.25  4517.13  4572.05  4590.62  4610.57
                             4631.06  5169.26

 Zero-point correction=                           0.172340 (Hartree/Particle)
 Thermal correction to Energy=                    0.182856
 Thermal correction to Enthalpy=                  0.183800
 Thermal correction to Gibbs Free Energy=         0.134053
 Sum of electronic and zero-point Energies=           -495.445484
 Sum of electronic and thermal Energies=              -495.434969
 Sum of electronic and thermal Enthalpies=            -495.434025
 Sum of electronic and thermal Free Energies=         -495.483772

                     E (Thermal)             CV                S
                      KCal/Mol        Cal/Mol-Kelvin    Cal/Mol-Kelvin
 Total                  114.744             37.762            104.701
 Electronic               0.000              0.000              0.000
 Translational            0.889              2.981             40.928
 Rotational               0.889              2.981             30.396
 Vibrational            112.966             31.800             33.376
 Vibration     1          0.593              1.985              6.243
 Vibration     2          0.595              1.979              4.969
 Vibration     3          0.596              1.974              4.500
 Vibration     4          0.605              1.944              3.339
 Vibration     5          0.622              1.891              2.551
 Vibration     6          0.638              1.841              2.138
 Vibration     7          0.659              1.774              1.781
 Vibration     8          0.699              1.655              1.363
 Vibration     9          0.779              1.437              0.908
 Vibration    10          0.826              1.319              0.740
 Vibration    11          0.836              1.295              0.710
 Vibration    12          0.871              1.214              0.619
 Vibration    13          0.952              1.045              0.460

 Normal termination of Gaussian 09 at Fri Feb 16 20:28:23 2018.
