 Gaussian 09, Revision C.01,
 Gaussian 09:  AM64L-G09RevC.01 23-Sep-2011

 ----------------------------------------------------------------------
 #HF/6-31G* Geom=AllCheck Guess=Read Pop=(MK,ReadRadii) Integral=(Grid=
 UltraFine) iop(6/33=2)
 ----------------------------------------------------------------------

 Structure from the checkpoint file:  frag14-conf0.chk
 -----------------------------
 Optimization for frag14-conf0
 -----------------------------
 Charge =  1 Multiplicity = 1

                         Standard orientation:
 ---------------------------------------------------------------------
 Center     Atomic      Atomic             Coordinates (Angstroms)
 Number     Number       Type             X           Y           Z
 ---------------------------------------------------------------------
      1          6           0       -1.983410    0.182642   -0.438140
      2          6           0        3.628838   -1.261950   -0.132896
      3          6           0        3.814724    0.190376    0.326536
      4          6           0        2.387291   -1.404633   -1.022459
      5          6           0        2.555205    0.727338    1.022020
      6          6           0        1.120907   -0.868334   -0.332390
      7          6           0        1.294861    0.591163    0.137296
      8          6           0       -3.226168   -1.882236   -0.201306
      9          6           0       -2.690446   -0.573476    1.830801
     10          6           0        0.084091    1.154455    0.916712
     11          6           0       -1.239477    1.416563    0.160174
     12          7           0       -2.589128   -0.689314    0.375373
     13          7           0       -0.990488    2.268678   -1.072542
     14          8           0       -1.975989    0.088423   -1.679261
     15          1           0        4.519679   -1.605713   -0.670478
     16          1           0        3.524429   -1.912604    0.747238
     17          1           0        4.670045    0.272868    1.006606
     18          1           0        4.047017    0.822730   -0.542781
     19          1           0        2.545382   -0.855099   -1.961976
     20          1           0        2.231753   -2.452947   -1.301766
     21          1           0        2.388812    0.169434    1.955603
     22          1           0        2.699114    1.777737    1.308373
     23          1           0        0.271667   -0.960710   -1.017822
     24          1           0        0.895268   -1.491386    0.546606
     25          1           0        1.478717    1.210017   -0.761297
     26          1           0       -2.811444   -2.778022    0.271726
     27          1           0       -3.037980   -1.908330   -1.272365
     28          1           0       -4.304892   -1.848312   -0.017260
     29          1           0       -3.724497   -0.772649    2.127532
     30          1           0       -2.428416    0.424964    2.179247
     31          1           0       -2.041174   -1.305763    2.323915
     32          1           0       -0.142404    0.481666    1.750560
     33          1           0        0.371610    2.109376    1.377862
     34          1           0       -1.913459    1.985056    0.805058
     35          1           0       -0.011680    2.556211   -1.160099
     36          1           0       -1.588061    3.097802   -1.123702
     37          1           0       -1.252748    1.589291   -1.854605
 ---------------------------------------------------------------------

 SCF Done:  E(RHF) =  -613.504667296     A.U. after   13 cycles

 The electronic state is 1-A.
 Alpha  occ. eigenvalues --  -20.69376 -15.85068 -15.75469 -11.52489 -11.47989
 Alpha  occ. eigenvalues --  -11.40896 -11.39596 -11.38359 -11.37013 -11.33738
 Alpha  occ. eigenvalues --  -11.33611 -11.32037 -11.31848 -11.31204  -1.55244
 Alpha  occ. eigenvalues --   -1.46193  -1.40142  -1.25114  -1.20000  -1.13398
 Alpha  occ. eigenvalues --   -1.11223  -1.11120  -1.08296  -1.03038  -0.95111
 Alpha  occ. eigenvalues --   -0.94219  -0.92845  -0.91743  -0.89253  -0.86304
 Alpha  occ. eigenvalues --   -0.83078  -0.82456  -0.79911  -0.77235  -0.75834
 Alpha  occ. eigenvalues --   -0.74818  -0.73146  -0.71630  -0.70787  -0.70204
 Alpha  occ. eigenvalues --   -0.69488  -0.68649  -0.67449  -0.67205  -0.66739
 Alpha  occ. eigenvalues --   -0.63368  -0.63008  -0.61720  -0.59581  -0.59070
 Alpha  occ. eigenvalues --   -0.58809  -0.55682  -0.54023  -0.53475  -0.52464
 Alpha virt. eigenvalues --    0.01380   0.02249   0.06424   0.08685   0.10507
 Alpha virt. eigenvalues --    0.12664   0.13425   0.14073   0.14425   0.15356
 Alpha virt. eigenvalues --    0.16875   0.17422   0.17984   0.18612   0.19464

 Mulliken atomic charges:
              1
     1  C    0.837619
     2  C   -0.318503
     3  C   -0.319617
     4  C   -0.316550
     5  C   -0.312859
     6  C   -0.337839
     7  C   -0.189325
     8  C   -0.317129
     9  C   -0.310675
    10  C   -0.346438
    11  C   -0.127601
    12  N   -0.655706
    13  N   -0.909293
    14  O   -0.683775
    15  H    0.191211
    16  H    0.164966
    17  H    0.192523
    18  H    0.161296
    19  H    0.161453
    20  H    0.189692
    21  H    0.170234
    22  H    0.171566
    23  H    0.187055
    24  H    0.161640
    25  H    0.135760
    26  H    0.203303
    27  H    0.254312
    28  H    0.205535
    29  H    0.225077
    30  H    0.185482
    31  H    0.213895
    32  H    0.221398
    33  H    0.207763
    34  H    0.260708
    35  H    0.462138
    36  H    0.458115
    37  H    0.522566
 Sum of Mulliken atomic charges =   1.00000

 Dipole moment (field-independent basis, Debye):
    X=             -4.7594    Y=              6.1147    Z=              1.1912  Tot=              7.8396
 Quadrupole moment (field-independent basis, Debye-Ang):
   XX=            -64.0969   YY=            -59.6693   ZZ=            -81.8284
   XY=             -3.2034   XZ=             -6.0892   YZ=             -8.3772

 Normal termination of Gaussian 09 at Sat Feb 17 20:58:39 2018.
