 Gaussian 09, Revision C.01,
 Gaussian 09:  AM64L-G09RevC.01 23-Sep-2011

 ---------------------------------------------------------
 #B3LYP/6-31G* Integral=(Grid=UltraFine) freq Opt pop=none
 ---------------------------------------------------------

 99/9=1/99;
 -----------------------------
 Optimization for frag14-conf0
 -----------------------------
 Charge =  1 Multiplicity = 1

 SCF Done:  E(RB3LYP) =  -617.534714433     A.U. after   14 cycles
 SCF Done:  E(RB3LYP) =  -617.543053063     A.U. after   12 cycles
 SCF Done:  E(RB3LYP) =  -617.544525209     A.U. after   12 cycles
 SCF Done:  E(RB3LYP) =  -617.545042615     A.U. after   12 cycles
 SCF Done:  E(RB3LYP) =  -617.544742966     A.U. after   14 cycles
 SCF Done:  E(RB3LYP) =  -617.545861928     A.U. after   13 cycles
 SCF Done:  E(RB3LYP) =  -617.546992620     A.U. after   12 cycles
 SCF Done:  E(RB3LYP) =  -617.547480914     A.U. after   11 cycles
 SCF Done:  E(RB3LYP) =  -617.548126986     A.U. after   12 cycles
 SCF Done:  E(RB3LYP) =  -617.548218222     A.U. after   11 cycles
 SCF Done:  E(RB3LYP) =  -617.548731897     A.U. after    8 cycles
 SCF Done:  E(RB3LYP) =  -617.548734479     A.U. after    9 cycles
 SCF Done:  E(RB3LYP) =  -617.548735981     A.U. after    8 cycles
 SCF Done:  E(RB3LYP) =  -617.548736859     A.U. after    7 cycles
 SCF Done:  E(RB3LYP) =  -617.548737079     A.U. after    7 cycles
 SCF Done:  E(RB3LYP) =  -617.548737151     A.U. after    6 cycles
 SCF Done:  E(RB3LYP) =  -617.548737202     A.U. after    7 cycles
 SCF Done:  E(RB3LYP) =  -617.548737241     A.U. after    6 cycles
 SCF Done:  E(RB3LYP) =  -617.548737281     A.U. after    6 cycles
 Optimization completed.
    -- Stationary point found.
 Normal termination of Gaussian 09 at Fri Feb 16 19:24:21 2018.

 --------------------------------------------------------------------
 #N Geom=AllCheck Guess=TCheck SCRF=Check GenChk RB3LYP/6-31G(d) Freq
 --------------------------------------------------------------------

 Structure from the checkpoint file:  frag14-conf0.chk
 -----------------------------
 Optimization for frag14-conf0
 -----------------------------
 Charge =  1 Multiplicity = 1

                         Standard orientation:
 ---------------------------------------------------------------------
 Center     Atomic      Atomic             Coordinates (Angstroms)
 Number     Number       Type             X           Y           Z
 ---------------------------------------------------------------------
      1          6           0       -1.983410    0.182642   -0.438140
      2          6           0        3.628838   -1.261950   -0.132896
      3          6           0        3.814724    0.190376    0.326536
      4          6           0        2.387291   -1.404633   -1.022459
      5          6           0        2.555205    0.727338    1.022020
      6          6           0        1.120907   -0.868334   -0.332390
      7          6           0        1.294861    0.591163    0.137296
      8          6           0       -3.226168   -1.882236   -0.201306
      9          6           0       -2.690446   -0.573476    1.830801
     10          6           0        0.084091    1.154455    0.916712
     11          6           0       -1.239477    1.416563    0.160174
     12          7           0       -2.589128   -0.689314    0.375373
     13          7           0       -0.990488    2.268678   -1.072542
     14          8           0       -1.975989    0.088423   -1.679261
     15          1           0        4.519679   -1.605713   -0.670478
     16          1           0        3.524429   -1.912604    0.747238
     17          1           0        4.670045    0.272868    1.006606
     18          1           0        4.047017    0.822730   -0.542781
     19          1           0        2.545382   -0.855099   -1.961976
     20          1           0        2.231753   -2.452947   -1.301766
     21          1           0        2.388812    0.169434    1.955603
     22          1           0        2.699114    1.777737    1.308373
     23          1           0        0.271667   -0.960710   -1.017822
     24          1           0        0.895268   -1.491386    0.546606
     25          1           0        1.478717    1.210017   -0.761297
     26          1           0       -2.811444   -2.778022    0.271726
     27          1           0       -3.037980   -1.908330   -1.272365
     28          1           0       -4.304892   -1.848312   -0.017260
     29          1           0       -3.724497   -0.772649    2.127532
     30          1           0       -2.428416    0.424964    2.179247
     31          1           0       -2.041174   -1.305763    2.323915
     32          1           0       -0.142404    0.481666    1.750560
     33          1           0        0.371610    2.109376    1.377862
     34          1           0       -1.913459    1.985056    0.805058
     35          1           0       -0.011680    2.556211   -1.160099
     36          1           0       -1.588061    3.097802   -1.123702
     37          1           0       -1.252748    1.589291   -1.854605
 ---------------------------------------------------------------------

 SCF Done:  E(RB3LYP) =  -617.548737281     A.U. after    1 cycles

 Isotropic polarizability for W=    0.000000      128.13 Bohr**3.
 End of Minotr Frequency-dependent properties file   721 does not exist.

                     1                      2                      3
                     A                      A                      A
 Frequencies --    22.3056                43.6536                74.4962
 Red. masses --     2.9346                 3.3779                 2.6690
 Frc consts  --     0.0009                 0.0038                 0.0087
 IR Inten    --     0.7440                 0.9601                 1.6289

                     4                      5                      6
                     A                      A                      A
 Frequencies --    99.5462               105.4835               126.4853
 Red. masses --     1.3041                 2.2484                 3.2335
 Frc consts  --     0.0076                 0.0147                 0.0305
 IR Inten    --     0.2021                 8.8957                 2.3329

                     7                      8                      9
                     A                      A                      A
 Frequencies --   141.1212               176.5176               198.8934
 Red. masses --     1.3506                 2.3760                 2.7095
 Frc consts  --     0.0158                 0.0436                 0.0632
 IR Inten    --     4.2585                 9.9162                 1.5456

                    10                     11                     12
                     A                      A                      A
 Frequencies --   231.1623               248.5063               267.8218
 Red. masses --     1.7980                 3.2333                 1.6814
 Frc consts  --     0.0566                 0.1176                 0.0711
 IR Inten    --     0.5174                 5.2668                 1.9076

                    13                     14                     15
                     A                      A                      A
 Frequencies --   291.5923               325.5056               337.4765
 Red. masses --     1.5706                 1.9364                 2.0773
 Frc consts  --     0.0787                 0.1209                 0.1394
 IR Inten    --     3.1994                 2.7873                 3.5646

                    16                     17                     18
                     A                      A                      A
 Frequencies --   379.3338               400.2744               429.7177
 Red. masses --     2.7406                 3.3307                 2.0202
 Frc consts  --     0.2323                 0.3144                 0.2198
 IR Inten    --     7.7835                 7.9897                 5.2276

                    19                     20                     21
                     A                      A                      A
 Frequencies --   444.9921               446.5694               486.5164
 Red. masses --     3.2785                 2.6376                 3.3163
 Frc consts  --     0.3825                 0.3099                 0.4625
 IR Inten    --    55.0365                35.7447                14.0250

                    22                     23                     24
                     A                      A                      A
 Frequencies --   527.0594               565.2500               615.3996
 Red. masses --     1.9902                 2.8733                 4.8618
 Frc consts  --     0.3257                 0.5409                 1.0848
 IR Inten    --     7.9187                 9.9738                 9.5049

                    25                     26                     27
                     A                      A                      A
 Frequencies --   715.9997               745.7663               798.6841
 Red. masses --     5.1608                 2.7769                 1.5601
 Frc consts  --     1.5588                 0.9100                 0.5864
 IR Inten    --    16.4140                11.8467                 1.1590

                    28                     29                     30
                     A                      A                      A
 Frequencies --   811.2650               845.7319               866.5602
 Red. masses --     2.3586                 2.8364                 2.1490
 Frc consts  --     0.9146                 1.1953                 0.9508
 IR Inten    --     4.5531                 7.8839                 3.9446

                    31                     32                     33
                     A                      A                      A
 Frequencies --   871.8789               911.4001               926.7610
 Red. masses --     2.3824                 1.9156                 1.4559
 Frc consts  --     1.0670                 0.9375                 0.7367
 IR Inten    --     3.3709                 1.7204                 2.0768

                    34                     35                     36
                     A                      A                      A
 Frequencies --   950.7297               962.8697               985.9529
 Red. masses --     2.2893                 2.6272                 1.9806
 Frc consts  --     1.2192                 1.4351                 1.1344
 IR Inten    --     1.1600                 3.5212                10.8958

                    37                     38                     39
                     A                      A                      A
 Frequencies --  1029.7893              1049.3598              1066.9039
 Red. masses --     2.6554                 1.9310                 1.4562
 Frc consts  --     1.6591                 1.2528                 0.9766
 IR Inten    --    39.1292                 1.6273                 3.7353

                    40                     41                     42
                     A                      A                      A
 Frequencies --  1074.6574              1083.7836              1099.2720
 Red. masses --     1.8426                 1.4595                 2.0015
 Frc consts  --     1.2538                 1.0100                 1.4250
 IR Inten    --     1.7010                11.3800                11.2832

                    43                     44                     45
                     A                      A                      A
 Frequencies --  1104.3932              1121.7527              1130.0176
 Red. masses --     1.2856                 1.5296                 1.2419
 Frc consts  --     0.9238                 1.1340                 0.9343
 IR Inten    --     7.2067                47.8989                 0.5466

                    46                     47                     48
                     A                      A                      A
 Frequencies --  1142.2460              1173.7077              1182.2617
 Red. masses --     1.7000                 1.8061                 1.4266
 Frc consts  --     1.3069                 1.4660                 1.1748
 IR Inten    --    19.8723                46.7066                 9.9045

                    49                     50                     51
                     A                      A                      A
 Frequencies --  1199.1216              1213.0375              1254.1808
 Red. masses --     1.8437                 1.3396                 1.2621
 Frc consts  --     1.5620                 1.1613                 1.1696
 IR Inten    --     7.1036                 0.2831                 1.7870

                    52                     53                     54
                     A                      A                      A
 Frequencies --  1270.2110              1286.5581              1303.5028
 Red. masses --     3.5593                 1.4556                 1.2939
 Frc consts  --     3.3835                 1.4196                 1.2953
 IR Inten    --    41.5393                 4.1545                 2.5149

                    55                     56                     57
                     A                      A                      A
 Frequencies --  1311.1913              1326.9445              1347.9910
 Red. masses --     1.2763                 1.3282                 1.2761
 Frc consts  --     1.2928                 1.3779                 1.3662
 IR Inten    --     1.7417                 5.4862                 1.4480

                    58                     59                     60
                     A                      A                      A
 Frequencies --  1368.3468              1371.7073              1387.7224
 Red. masses --     1.2157                 1.2999                 1.3600
 Frc consts  --     1.3412                 1.4411                 1.5431
 IR Inten    --     7.7196                32.1574                 5.1841

                    61                     62                     63
                     A                      A                      A
 Frequencies --  1388.2492              1404.1417              1406.5411
 Red. masses --     1.3638                 1.4537                 1.4578
 Frc consts  --     1.5486                 1.6887                 1.6993
 IR Inten    --    15.4190                 4.1399                 3.9891

                    64                     65                     66
                     A                      A                      A
 Frequencies --  1414.9117              1424.9340              1441.6187
 Red. masses --     1.3864                 1.4374                 1.2846
 Frc consts  --     1.6353                 1.7196                 1.5730
 IR Inten    --    18.6586                14.7362               407.1889

                    67                     68                     69
                     A                      A                      A
 Frequencies --  1464.0649              1474.6152              1502.8627
 Red. masses --     1.1555                 1.9413                 1.1477
 Frc consts  --     1.4592                 2.4871                 1.5272
 IR Inten    --     9.4047                21.3452                16.4544

                    70                     71                     72
                     A                      A                      A
 Frequencies --  1506.6821              1511.5223              1514.3483
 Red. masses --     1.1070                 1.0592                 1.0878
 Frc consts  --     1.4806                 1.4258                 1.4697
 IR Inten    --     6.1969                 4.0900                 1.4680

                    73                     74                     75
                     A                      A                      A
 Frequencies --  1516.4910              1517.4386              1522.8182
 Red. masses --     1.0896                 1.0941                 1.0859
 Frc consts  --     1.4764                 1.4843                 1.4837
 IR Inten    --     5.5552                 7.8899                17.1921

                    76                     77                     78
                     A                      A                      A
 Frequencies --  1526.4074              1530.0412              1535.9117
 Red. masses --     1.0932                 1.0602                 1.0976
 Frc consts  --     1.5006                 1.4624                 1.5255
 IR Inten    --    15.5018                16.6551                 0.7285

                    79                     80                     81
                     A                      A                      A
 Frequencies --  1562.7644              1651.7093              1690.6841
 Red. masses --     1.4120                 1.0803                 1.0473
 Frc consts  --     2.0318                 1.7364                 1.7638
 IR Inten    --    52.9944                42.1751                42.9979

                    82                     83                     84
                     A                      A                      A
 Frequencies --  1749.7832              2825.5716              2941.9093
 Red. masses --     4.9114                 1.0715                 1.0805
 Frc consts  --     8.8598                 5.0404                 5.5097
 IR Inten    --   212.3594               354.9737                49.2361

                    85                     86                     87
                     A                      A                      A
 Frequencies --  3018.4513              3024.7767              3027.9471
 Red. masses --     1.0692                 1.0654                 1.0706
 Frc consts  --     5.7396                 5.7431                 5.7833
 IR Inten    --    13.8467                12.0901                21.1765

                    88                     89                     90
                     A                      A                      A
 Frequencies --  3030.3524              3039.9087              3045.8439
 Red. masses --     1.0672                 1.0638                 1.0693
 Frc consts  --     5.7742                 5.7918                 5.8450
 IR Inten    --     4.4823                48.3105                18.8111

                    91                     92                     93
                     A                      A                      A
 Frequencies --  3065.9916              3067.7357              3072.1676
 Red. masses --     1.0382                 1.0999                 1.0372
 Frc consts  --     5.7502                 6.0988                 5.7677
 IR Inten    --    12.2651                46.1783                17.8434

                    94                     95                     96
                     A                      A                      A
 Frequencies --  3090.6355              3093.2879              3095.5445
 Red. masses --     1.0958                 1.0927                 1.1011
 Frc consts  --     6.1668                 6.1602                 6.2164
 IR Inten    --    28.9010                37.6607                31.3546

                    97                     98                     99
                     A                      A                      A
 Frequencies --  3100.0888              3109.9630              3119.6364
 Red. masses --     1.0939                 1.0945                 1.0872
 Frc consts  --     6.1943                 6.2369                 6.2338
 IR Inten    --    25.8787                13.8412                 5.0886

                   100                    101                    102
                     A                      A                      A
 Frequencies --  3130.1588              3134.4836              3184.6757
 Red. masses --     1.1036                 1.1064                 1.0999
 Frc consts  --     6.3709                 6.4046                 6.5724
 IR Inten    --    11.4066                 5.9385                12.2747

                   103                    104                    105
                     A                      A                      A
 Frequencies --  3214.0952              3460.5672              3531.3489
 Red. masses --     1.1005                 1.0538                 1.0955
 Frc consts  --     6.6982                 7.4351                 8.0487
 IR Inten    --     0.2762                65.6048               111.4057

 - Thermochemistry -
 -------------------
 Temperature   298.150 Kelvin.  Pressure   1.00000 Atm.
 Atom     1 has atomic number  6 and mass  12.00000

 Molecular mass:   199.18104 amu.
 Principal axes and moments of inertia in atomic units:
                           1         2         3
     Eigenvalues --  1725.979844705.217165087.26023
           X            0.99993   0.00519  -0.01083
           Y           -0.00519   0.99999   0.00074
           Z            0.01083  -0.00068   0.99994
 This molecule is an asymmetric top.
 Rotational symmetry number  1.
 Warning -- assumption of classical behavior for rotation
           may cause significant error
 Rotational temperatures (Kelvin)      0.05018     0.01841     0.01703
 Rotational constants (GHZ):           1.04563     0.38356     0.35476
 Zero-point vibrational energy     902951.0 (Joules/Mol)
                                  215.81047 (Kcal/Mol)
 Warning -- explicit consideration of  24 degrees of freedom as
           vibrations may cause significant error
 Vibrational temperatures:     32.09    62.81   107.18   143.22   151.77
          (Kelvin)            181.98   203.04   253.97   286.16   332.59
                              357.54   385.34   419.54   468.33   485.55
                              545.78   575.90   618.27   640.24   642.51
                              699.99   758.32   813.27   885.42  1030.16
                             1072.99  1149.13  1167.23  1216.82  1246.79
                             1254.44  1311.30  1333.40  1367.89  1385.35
                             1418.56  1481.64  1509.79  1535.03  1546.19
                             1559.32  1581.61  1588.97  1613.95  1625.84
                             1643.44  1688.70  1701.01  1725.27  1745.29
                             1804.48  1827.55  1851.07  1875.45  1886.51
                             1909.17  1939.46  1968.74  1973.58  1996.62
                             1997.38  2020.24  2023.70  2035.74  2050.16
                             2074.17  2106.46  2121.64  2162.28  2167.78
                             2174.74  2178.81  2181.89  2183.25  2190.99
                             2196.16  2201.39  2209.83  2248.47  2376.44
                             2432.51  2517.54  4065.36  4232.75  4342.87
                             4351.97  4356.54  4360.00  4373.75  4382.28
                             4411.27  4413.78  4420.16  4446.73  4450.55
                             4453.79  4460.33  4474.54  4488.46  4503.59
                             4509.82  4582.03  4624.36  4978.98  5080.82

 Zero-point correction=                           0.343916 (Hartree/Particle)
 Thermal correction to Energy=                    0.359440
 Thermal correction to Enthalpy=                  0.360384
 Thermal correction to Gibbs Free Energy=         0.300629
 Sum of electronic and zero-point Energies=           -617.204821
 Sum of electronic and thermal Energies=              -617.189298
 Sum of electronic and thermal Enthalpies=            -617.188354
 Sum of electronic and thermal Free Energies=         -617.248108

                     E (Thermal)             CV                S
                      KCal/Mol        Cal/Mol-Kelvin    Cal/Mol-Kelvin
 Total                  225.552             58.716            125.764
 Electronic               0.000              0.000              0.000
 Translational            0.889              2.981             41.772
 Rotational               0.889              2.981             32.091
 Vibrational            223.774             52.754             51.901
 Vibration     1          0.593              1.985              6.418
 Vibration     2          0.595              1.980              5.086
 Vibration     3          0.599              1.966              4.031
 Vibration     4          0.604              1.949              3.463
 Vibration     5          0.605              1.945              3.350
 Vibration     6          0.611              1.927              2.999
 Vibration     7          0.615              1.912              2.789
 Vibration     8          0.628              1.871              2.365
 Vibration     9          0.637              1.841              2.143
 Vibration    10          0.653              1.793              1.870
 Vibration    11          0.662              1.765              1.741
 Vibration    12          0.673              1.732              1.610
 Vibration    13          0.687              1.689              1.465
 Vibration    14          0.710              1.624              1.282
 Vibration    15          0.718              1.601              1.224
 Vibration    16          0.749              1.514              1.042
 Vibration    17          0.766              1.470              0.962
 Vibration    18          0.791              1.406              0.860
 Vibration    19          0.804              1.372              0.811
 Vibration    20          0.806              1.368              0.806
 Vibration    21          0.843              1.280              0.693
 Vibration    22          0.882              1.190              0.594
 Vibration    23          0.921              1.106              0.513
 Vibration    24          0.975              0.999              0.424

 Optimization completed.
    -- Stationary point found.
 Normal termination of Gaussian 09 at Fri Feb 16 20:06:10 2018.
