 Gaussian 09, Revision C.01,
 Gaussian 09:  AM64L-G09RevC.01 23-Sep-2011

 ----------------------------------------------------------------------
 #HF/6-31G* Geom=AllCheck Guess=Read Pop=(MK,ReadRadii) Integral=(Grid=
 UltraFine) iop(6/33=2)
 ----------------------------------------------------------------------

 Structure from the checkpoint file:  frag22-conf2.chk
 -----------------------------
 Optimization for frag22-conf2
 -----------------------------
 Charge =  0 Multiplicity = 1

                         Standard orientation:
 ---------------------------------------------------------------------
 Center     Atomic      Atomic             Coordinates (Angstroms)
 Number     Number       Type             X           Y           Z
 ---------------------------------------------------------------------
      1          6           0        3.557104    0.184302   -0.448952
      2          6           0        2.915695    1.252840    0.178735
      3          6           0        2.921499   -1.057448   -0.524343
      4          6           0        1.643756    1.078249    0.726084
      5          6           0        1.652109   -1.232875    0.024924
      6          6           0        0.998771   -0.164523    0.657967
      7          6           0       -1.958706    2.145275   -0.543508
      8          6           0       -0.375306   -0.338415    1.245715
      9          7           0       -1.612868    0.811247   -1.033853
     10          8           0       -1.393968   -1.678500   -0.830248
     11          8           0       -2.977511   -0.391488    0.722315
     12         16           0       -1.713814   -0.509473   -0.008540
     13          1           0        4.548042    0.316757   -0.874548
     14          1           0        3.404659    2.220876    0.246588
     15          1           0        3.416062   -1.893478   -1.011156
     16          1           0        1.153021    1.911164    1.225249
     17          1           0        1.154317   -2.194813   -0.048128
     18          1           0       -2.893217    2.073171    0.015478
     19          1           0       -2.123221    2.794658   -1.408120
     20          1           0       -1.186830    2.598031    0.095663
     21          1           0       -0.665180    0.504927    1.878376
     22          1           0       -0.470031   -1.255121    1.837035
     23          1           0       -0.784212    0.752147   -1.619105
 ---------------------------------------------------------------------

 SCF Done:  E(RHF) =  -910.954703276     A.U. after   14 cycles

 The electronic state is 1-A.
 Alpha  occ. eigenvalues --  -92.20599 -20.55349 -20.55255 -15.60805 -11.28786
 Alpha  occ. eigenvalues --  -11.28003 -11.26804 -11.25846 -11.25426 -11.25312
 Alpha  occ. eigenvalues --  -11.25199 -11.25065  -9.17710  -6.86296  -6.86286
 Alpha  occ. eigenvalues --   -6.86179  -1.44917  -1.33200  -1.23132  -1.17191
 Alpha  occ. eigenvalues --   -1.07938  -1.02890  -0.98850  -0.95287  -0.84511
 Alpha  occ. eigenvalues --   -0.84280  -0.80842  -0.72771  -0.70755  -0.67736
 Alpha  occ. eigenvalues --   -0.67055  -0.66016  -0.64811  -0.62088  -0.60763
 Alpha  occ. eigenvalues --   -0.60014  -0.59578  -0.57957  -0.56349  -0.52431
 Alpha  occ. eigenvalues --   -0.51070  -0.50661  -0.49553  -0.48610  -0.46262
 Alpha  occ. eigenvalues --   -0.45321  -0.42505  -0.34970  -0.34386
 Alpha virt. eigenvalues --    0.11258   0.12362   0.19694   0.22260   0.23872
 Alpha virt. eigenvalues --    0.24722   0.25831   0.26029   0.27851   0.28677
 Alpha virt. eigenvalues --    0.29259   0.30065   0.31108   0.32613   0.33006

 Mulliken atomic charges:
              1
     1  C   -0.196962
     2  C   -0.201135
     3  C   -0.203254
     4  C   -0.221911
     5  C   -0.188327
     6  C   -0.008317
     7  C   -0.318941
     8  C   -0.600689
     9  N   -0.845366
    10  O   -0.690717
    11  O   -0.697556
    12  S    1.613603
    13  H    0.211526
    14  H    0.209766
    15  H    0.214701
    16  H    0.204519
    17  H    0.245388
    18  H    0.229627
    19  H    0.198778
    20  H    0.155469
    21  H    0.233499
    22  H    0.250677
    23  H    0.405622
 Sum of Mulliken atomic charges =   0.00000

 Dipole moment (field-independent basis, Debye):
    X=              4.7310    Y=              4.0185    Z=              0.6436  Tot=              6.2406
 Quadrupole moment (field-independent basis, Debye-Ang):
   XX=            -86.9548   YY=            -73.9126   ZZ=            -78.9878
   XY=             -7.5135   XZ=             -2.6211   YZ=             -2.6937

 Normal termination of Gaussian 09 at Sat Feb 17 21:00:13 2018.
