 Gaussian 09, Revision C.01,
 Gaussian 09:  AM64L-G09RevC.01 23-Sep-2011

 ---------------------------------------------------------
 #B3LYP/6-31G* Integral=(Grid=UltraFine) freq Opt pop=none
 ---------------------------------------------------------

 99/9=1/99;
 -----------------------------
 Optimization for frag22-conf2
 -----------------------------
 Charge =  0 Multiplicity = 1

 SCF Done:  E(RB3LYP) =  -914.792619394     A.U. after   15 cycles
 SCF Done:  E(RB3LYP) =  -914.795852721     A.U. after   13 cycles
 SCF Done:  E(RB3LYP) =  -914.796285855     A.U. after   12 cycles
 SCF Done:  E(RB3LYP) =  -914.796434292     A.U. after   12 cycles
 SCF Done:  E(RB3LYP) =  -914.796495671     A.U. after   11 cycles
 SCF Done:  E(RB3LYP) =  -914.796521101     A.U. after   10 cycles
 SCF Done:  E(RB3LYP) =  -914.796525938     A.U. after    9 cycles
 SCF Done:  E(RB3LYP) =  -914.796526464     A.U. after    8 cycles
 SCF Done:  E(RB3LYP) =  -914.796526503     A.U. after    7 cycles
 SCF Done:  E(RB3LYP) =  -914.796526550     A.U. after    7 cycles
 Optimization completed.
    -- Stationary point found.
 Normal termination of Gaussian 09 at Fri Feb 16 19:17:25 2018.

 --------------------------------------------------------------------
 #N Geom=AllCheck Guess=TCheck SCRF=Check GenChk RB3LYP/6-31G(d) Freq
 --------------------------------------------------------------------

 Structure from the checkpoint file:  frag22-conf2.chk
 -----------------------------
 Optimization for frag22-conf2
 -----------------------------
 Charge =  0 Multiplicity = 1

                         Standard orientation:
 ---------------------------------------------------------------------
 Center     Atomic      Atomic             Coordinates (Angstroms)
 Number     Number       Type             X           Y           Z
 ---------------------------------------------------------------------
      1          6           0        3.557104    0.184302   -0.448952
      2          6           0        2.915695    1.252840    0.178735
      3          6           0        2.921499   -1.057448   -0.524343
      4          6           0        1.643756    1.078249    0.726084
      5          6           0        1.652109   -1.232875    0.024924
      6          6           0        0.998771   -0.164523    0.657967
      7          6           0       -1.958706    2.145275   -0.543508
      8          6           0       -0.375306   -0.338415    1.245715
      9          7           0       -1.612868    0.811247   -1.033853
     10          8           0       -1.393968   -1.678500   -0.830248
     11          8           0       -2.977511   -0.391488    0.722315
     12         16           0       -1.713814   -0.509473   -0.008540
     13          1           0        4.548042    0.316757   -0.874548
     14          1           0        3.404659    2.220876    0.246588
     15          1           0        3.416062   -1.893478   -1.011156
     16          1           0        1.153021    1.911164    1.225249
     17          1           0        1.154317   -2.194813   -0.048128
     18          1           0       -2.893217    2.073171    0.015478
     19          1           0       -2.123221    2.794658   -1.408120
     20          1           0       -1.186830    2.598031    0.095663
     21          1           0       -0.665180    0.504927    1.878376
     22          1           0       -0.470031   -1.255121    1.837035
     23          1           0       -0.784212    0.752147   -1.619105
 ---------------------------------------------------------------------

 SCF Done:  E(RB3LYP) =  -914.796526550     A.U. after    1 cycles

 Isotropic polarizability for W=    0.000000      106.98 Bohr**3.
 End of Minotr Frequency-dependent properties file   721 does not exist.

                     1                      2                      3
                     A                      A                      A
 Frequencies --    26.9450                58.6652                93.0242
 Red. masses --     4.1740                 4.0035                 4.3456
 Frc consts  --     0.0018                 0.0081                 0.0222
 IR Inten    --     1.5274                 2.3467                 2.7580

                     4                      5                      6
                     A                      A                      A
 Frequencies --   105.9700               139.1450               206.4454
 Red. masses --     3.2367                 1.2716                 2.5940
 Frc consts  --     0.0214                 0.0145                 0.0651
 IR Inten    --     0.4329                 3.7616                 6.9130

                     7                      8                      9
                     A                      A                      A
 Frequencies --   231.0314               269.9975               285.6222
 Red. masses --     4.0016                 7.5380                 6.7393
 Frc consts  --     0.1258                 0.3238                 0.3239
 IR Inten    --     1.6091                 0.4251                 2.3202

                    10                     11                     12
                     A                      A                      A
 Frequencies --   346.9543               417.5344               420.1699
 Red. masses --     2.0897                 2.9661                 6.3432
 Frc consts  --     0.1482                 0.3047                 0.6598
 IR Inten    --     0.6816                 0.1117                10.9682

                    13                     14                     15
                     A                      A                      A
 Frequencies --   457.2835               464.9661               529.1742
 Red. masses --     2.9129                 3.3796                 5.1534
 Frc consts  --     0.3589                 0.4305                 0.8502
 IR Inten    --    14.1050                30.1949                31.0119

                    16                     17                     18
                     A                      A                      A
 Frequencies --   567.2543               606.4453               635.0731
 Red. masses --     2.4765                 4.7912                 6.2774
 Frc consts  --     0.4695                 1.0382                 1.4917
 IR Inten    --   129.7110                49.7729                 1.6447

                    19                     20                     21
                     A                      A                      A
 Frequencies --   700.5186               713.8734               771.8016
 Red. masses --     3.9289                 1.7452                 1.9454
 Frc consts  --     1.1359                 0.5240                 0.6828
 IR Inten    --    77.3273                18.0912                13.9682

                    22                     23                     24
                     A                      A                      A
 Frequencies --   811.1699               834.0513               861.5211
 Red. masses --     3.0538                 4.0311                 1.2496
 Frc consts  --     1.1839                 1.6522                 0.5464
 IR Inten    --    77.7765                 4.9613                 0.4343

                    25                     26                     27
                     A                      A                      A
 Frequencies --   910.7492               938.2480               972.9879
 Red. masses --     1.7094                 1.5133                 1.3544
 Frc consts  --     0.8354                 0.7849                 0.7555
 IR Inten    --    11.7634                15.9405                 0.1662

                    28                     29                     30
                     A                      A                      A
 Frequencies --  1001.8288              1018.3498              1059.3809
 Red. masses --     1.2650                 6.1426                 2.2444
 Frc consts  --     0.7481                 3.7532                 1.4840
 IR Inten    --     0.5848                 0.6193                 2.5548

                    31                     32                     33
                     A                      A                      A
 Frequencies --  1085.3355              1107.3576              1124.3597
 Red. masses --     2.8487                 1.7258                 4.3524
 Frc consts  --     1.9771                 1.2469                 3.2418
 IR Inten    --    36.1341                14.4130               168.1643

                    34                     35                     36
                     A                      A                      A
 Frequencies --  1148.0424              1158.5870              1176.1928
 Red. masses --     1.4267                 1.4579                 1.2297
 Frc consts  --     1.1079                 1.1530                 1.0023
 IR Inten    --    14.2851                 4.3878                26.3350

                    37                     38                     39
                     A                      A                      A
 Frequencies --  1194.9687              1217.8053              1230.4176
 Red. masses --     1.1003                 1.1470                 2.3960
 Frc consts  --     0.9257                 1.0022                 2.1372
 IR Inten    --     0.0030                 0.3046                 2.1098

                    40                     41                     42
                     A                      A                      A
 Frequencies --  1285.7786              1339.6041              1359.4021
 Red. masses --     1.6964                 5.7152                 4.6189
 Frc consts  --     1.6523                 6.0428                 5.0291
 IR Inten    --    26.9026               132.9918                 4.0932

                    43                     44                     45
                     A                      A                      A
 Frequencies --  1372.2300              1442.9779              1473.8680
 Red. masses --     1.3376                 1.3587                 1.1682
 Frc consts  --     1.4840                 1.6668                 1.4952
 IR Inten    --     1.2923                43.0560                 1.8656

                    46                     47                     48
                     A                      A                      A
 Frequencies --  1487.3547              1502.6083              1525.3657
 Red. masses --     1.1491                 2.0616                 1.0549
 Frc consts  --     1.4977                 2.7425                 1.4461
 IR Inten    --     6.4455                 8.7501                11.0564

                    49                     50                     51
                     A                      A                      A
 Frequencies --  1540.3703              1546.4057              1642.7799
 Red. masses --     1.0467                 2.1913                 5.4294
 Frc consts  --     1.4633                 3.0874                 8.6329
 IR Inten    --     3.4570                10.9198                 0.8930

                    52                     53                     54
                     A                      A                      A
 Frequencies --  1663.8572              3023.7287              3085.3504
 Red. masses --     5.4844                 1.0502                 1.0597
 Frc consts  --     8.9456                 5.6573                 5.9437
 IR Inten    --     1.3796                46.2702                 5.6991

                    55                     56                     57
                     A                      A                      A
 Frequencies --  3115.8391              3142.3634              3170.9221
 Red. masses --     1.0880                 1.1062                 1.1013
 Frc consts  --     6.2236                 6.4357                 6.5242
 IR Inten    --    25.6960                 1.6050                 2.8233

                    58                     59                     60
                     A                      A                      A
 Frequencies --  3174.7769              3188.5519              3198.8688
 Red. masses --     1.0875                 1.0870                 1.0914
 Frc consts  --     6.4582                 6.5116                 6.5800
 IR Inten    --     9.5466                 1.4702                21.7149

                    61                     62                     63
                     A                      A                      A
 Frequencies --  3209.5590              3219.3080              3559.5225
 Red. masses --     1.0953                 1.0953                 1.0756
 Frc consts  --     6.6477                 6.6883                 8.0294
 IR Inten    --    21.8076                 4.8332                16.0115

 - Thermochemistry -
 -------------------
 Temperature   298.150 Kelvin.  Pressure   1.00000 Atm.
 Atom     1 has atomic number  6 and mass  12.00000

 Molecular mass:   185.05105 amu.
 Principal axes and moments of inertia in atomic units:
                           1         2         3
     Eigenvalues --  1121.207443343.351623828.26349
           X            0.99978  -0.02058  -0.00406
           Y            0.02054   0.99973  -0.01110
           Z            0.00429   0.01102   0.99993
 This molecule is an asymmetric top.
 Rotational symmetry number  1.
 Warning -- assumption of classical behavior for rotation
           may cause significant error
 Rotational temperatures (Kelvin)      0.07725     0.02591     0.02262
 Rotational constants (GHZ):           1.60964     0.53980     0.47143
 Zero-point vibrational energy     485508.2 (Joules/Mol)
                                  116.03926 (Kcal/Mol)
 Warning -- explicit consideration of  17 degrees of freedom as
           vibrations may cause significant error
 Vibrational temperatures:     38.77    84.41   133.84   152.47   200.20
          (Kelvin)            297.03   332.40   388.47   410.95   499.19
                              600.74   604.53   657.93   668.98   761.36
                              816.15   872.54   913.73  1007.89  1027.10
                             1110.45  1167.09  1200.01  1239.54  1310.36
                             1349.93  1399.91  1441.41  1465.18  1524.21
                             1561.55  1593.24  1617.70  1651.77  1666.95
                             1692.28  1719.29  1752.15  1770.29  1849.95
                             1927.39  1955.87  1974.33  2076.12  2120.56
                             2139.97  2161.92  2194.66  2216.25  2224.93
                             2363.59  2393.92  4350.47  4439.13  4482.99
                             4521.15  4562.24  4567.79  4587.61  4602.45
                             4617.83  4631.86  5121.35

 Zero-point correction=                           0.184920 (Hartree/Particle)
 Thermal correction to Energy=                    0.196697
 Thermal correction to Enthalpy=                  0.197641
 Thermal correction to Gibbs Free Energy=         0.145864
 Sum of electronic and zero-point Energies=           -914.611606
 Sum of electronic and thermal Energies=              -914.599829
 Sum of electronic and thermal Enthalpies=            -914.598885
 Sum of electronic and thermal Free Energies=         -914.650663

                     E (Thermal)             CV                S
                      KCal/Mol        Cal/Mol-Kelvin    Cal/Mol-Kelvin
 Total                  123.429             43.911            108.974
 Electronic               0.000              0.000              0.000
 Translational            0.889              2.981             41.553
 Rotational               0.889              2.981             31.040
 Vibrational            121.652             37.950             36.381
 Vibration     1          0.593              1.984              6.043
 Vibration     2          0.596              1.974              4.502
 Vibration     3          0.602              1.954              3.595
 Vibration     4          0.605              1.944              3.341
 Vibration     5          0.615              1.914              2.816
 Vibration     6          0.641              1.831              2.075
 Vibration     7          0.653              1.794              1.871
 Vibration     8          0.674              1.728              1.596
 Vibration     9          0.683              1.700              1.500
 Vibration    10          0.725              1.581              1.180
 Vibration    11          0.781              1.432              0.900
 Vibration    12          0.783              1.426              0.891
 Vibration    13          0.815              1.345              0.774
 Vibration    14          0.822              1.328              0.752
 Vibration    15          0.884              1.185              0.589
 Vibration    16          0.923              1.102              0.510
 Vibration    17          0.965              1.018              0.439

 Normal termination of Gaussian 09 at Fri Feb 16 19:41:22 2018.
