 Gaussian 09, Revision C.01,
 Gaussian 09:  AM64L-G09RevC.01 23-Sep-2011

 ----------------------------------------------------------------------
 #HF/6-31G* Geom=AllCheck Guess=Read Pop=(MK,ReadRadii) Integral=(Grid=
 UltraFine) iop(6/33=2)
 ----------------------------------------------------------------------

 Structure from the checkpoint file:  frag48-conf0.chk
 -----------------------------
 Optimization for frag48-conf0
 -----------------------------
 Charge =  0 Multiplicity = 1

                         Standard orientation:
 ---------------------------------------------------------------------
 Center     Atomic      Atomic             Coordinates (Angstroms)
 Number     Number       Type             X           Y           Z
 ---------------------------------------------------------------------
      1          6           0        4.297155   -1.462952   -0.285876
      2          6           0        3.238182   -2.044441   -0.986786
      3          6           0        4.028756   -0.621717    0.795454
      4          6           0        1.920352   -1.784056   -0.607858
      5          6           0        2.709372   -0.359853    1.169605
      6          6           0        1.637693   -0.936108    0.474224
      7          6           0        0.199218    1.764700    0.043870
      8          6           0        1.995930    3.244021   -0.763731
      9          6           0       -4.333237    0.171958   -0.896121
     10          6           0        0.202499   -0.634839    0.848384
     11          6           0       -0.468847    0.388407   -0.113703
     12          7           0        1.153919    2.063354   -0.874382
     13          7           0       -1.891488    0.632257    0.157012
     14          8           0       -0.127617    2.509374    0.964655
     15          8           0       -3.522505   -1.000261    1.326872
     16          8           0       -2.384907   -1.631215   -0.873668
     17         16           0       -2.996920   -0.629086    0.008341
     18          1           0        5.323745   -1.670105   -0.575961
     19          1           0        3.437865   -2.709517   -1.823016
     20          1           0        4.846703   -0.171928    1.352385
     21          1           0        1.098558   -2.252952   -1.145421
     22          1           0        2.506097    0.295997    2.013092
     23          1           0        1.498537    3.944729   -0.092362
     24          1           0        2.125000    3.709206   -1.745883
     25          1           0        2.982347    2.995906   -0.352524
     26          1           0       -5.120233   -0.573916   -1.030365
     27          1           0       -4.706481    1.012202   -0.307568
     28          1           0       -3.951649    0.510497   -1.860030
     29          1           0       -0.390673   -1.553478    0.813947
     30          1           0        0.143123   -0.234732    1.866804
     31          1           0       -0.383249    0.023662   -1.140738
     32          1           0        1.441003    1.331053   -1.509214
     33          1           0       -2.019191    1.165572    1.017340
 ---------------------------------------------------------------------

 SCF Done:  E(RHF) =  -1156.80496712     A.U. after   13 cycles

 The electronic state is 1-A.
 Alpha  occ. eigenvalues --  -92.21388 -20.56000 -20.55765 -20.53762 -15.60727
 Alpha  occ. eigenvalues --  -15.60274 -11.36612 -11.30116 -11.27827 -11.26802
 Alpha  occ. eigenvalues --  -11.25170 -11.24491 -11.24448 -11.24427 -11.24255
 Alpha  occ. eigenvalues --  -11.24191 -11.24177  -9.18493  -6.87087  -6.87063
 Alpha  occ. eigenvalues --   -6.86967  -1.45442  -1.38978  -1.33626  -1.24063
 Alpha  occ. eigenvalues --   -1.23670  -1.15928  -1.07647  -1.03873  -1.01804
 Alpha  occ. eigenvalues --   -1.00031  -0.95656  -0.89776  -0.83339  -0.82960
 Alpha  occ. eigenvalues --   -0.80596  -0.78979  -0.74802  -0.70445  -0.69455
 Alpha  occ. eigenvalues --   -0.67580  -0.66829  -0.64996  -0.64279  -0.63684
 Alpha  occ. eigenvalues --   -0.63492  -0.62042  -0.60462  -0.59890  -0.59496
 Alpha  occ. eigenvalues --   -0.58933  -0.57998  -0.56385  -0.55419  -0.53713
 Alpha  occ. eigenvalues --   -0.52953  -0.51504  -0.49951  -0.49652  -0.49283
 Alpha  occ. eigenvalues --   -0.48956  -0.46795  -0.45518  -0.43896  -0.41602
 Alpha  occ. eigenvalues --   -0.39851  -0.34068  -0.33173
 Alpha virt. eigenvalues --    0.12922   0.13228   0.17887   0.21574   0.22205
 Alpha virt. eigenvalues --    0.23054   0.24250   0.24962   0.25911   0.26968
 Alpha virt. eigenvalues --    0.27341   0.27583   0.28533   0.29294   0.29563

 Mulliken atomic charges:
              1
     1  C   -0.206906
     2  C   -0.197836
     3  C   -0.199738
     4  C   -0.237762
     5  C   -0.220613
     6  C    0.005304
     7  C    0.805869
     8  C   -0.292851
     9  C   -0.696737
    10  C   -0.379381
    11  C   -0.054875
    12  N   -0.784663
    13  N   -0.910596
    14  O   -0.653023
    15  O   -0.680111
    16  O   -0.713956
    17  S    1.611401
    18  H    0.205013
    19  H    0.207185
    20  H    0.206357
    21  H    0.224143
    22  H    0.214952
    23  H    0.226967
    24  H    0.175243
    25  H    0.176134
    26  H    0.231803
    27  H    0.224476
    28  H    0.226124
    29  H    0.234553
    30  H    0.203894
    31  H    0.223169
    32  H    0.396478
    33  H    0.429983
 Sum of Mulliken atomic charges =   0.00000

 Dipole moment (field-independent basis, Debye):
    X=              2.5364    Y=              2.2486    Z=             -3.6731  Tot=              4.9981
 Quadrupole moment (field-independent basis, Debye-Ang):
   XX=            -92.5562   YY=           -117.5175   ZZ=           -109.2480
   XY=             -5.9701   XZ=              5.7574   YZ=             -1.6461

 1\1\GINC-NODE094\SP\RHF\6-31G(d)\C11H16N2O3S1\WULSDORT\17-Feb-2018\0\\
 #HF/6-31G* Geom=AllCheck Guess=Read Pop=(MK,ReadRadii) Integral=(Grid=
 UltraFine) iop(6/33=2)\\Optimization for frag48-conf0\\0,1\C,0,-2.7092
 285078,3.2643239275,0.4138487845\C,0,-1.9703098656,4.3517920348,-0.057
 5749667\C,0,-2.1560546962,2.4218055399,1.3798456804\C,0,-0.6864906469,
 4.5925136769,0.4342817743\C,0,-0.8699831504,2.6627503639,1.8669800279\
 C,0,-0.1176066301,3.7497587956,1.4017257823\C,0,2.3560564704,2.0181887
 124,0.7448906515\C,0,1.403796394,0.1103025533,-0.4887855695\C,0,5.8086

 Normal termination of Gaussian 09 at Sat Feb 17 21:06:25 2018.
