 Gaussian 09, Revision C.01,
 Gaussian 09:  AM64L-G09RevC.01 23-Sep-2011

 ---------------------------------------------------------
 #B3LYP/6-31G* Integral=(Grid=UltraFine) freq Opt pop=none
 ---------------------------------------------------------

 99/9=1/99;
 -----------------------------
 Optimization for frag48-conf0
 -----------------------------
 Charge =  0 Multiplicity = 1

 SCF Done:  E(RB3LYP) =  -1162.11647773     A.U. after   15 cycles
 SCF Done:  E(RB3LYP) =  -1162.12210333     A.U. after   12 cycles
 SCF Done:  E(RB3LYP) =  -1162.12251827     A.U. after   12 cycles
 SCF Done:  E(RB3LYP) =  -1162.12265576     A.U. after   12 cycles
 SCF Done:  E(RB3LYP) =  -1162.12295047     A.U. after   11 cycles
 SCF Done:  E(RB3LYP) =  -1162.12302226     A.U. after   12 cycles
 SCF Done:  E(RB3LYP) =  -1162.12312440     A.U. after   11 cycles
 SCF Done:  E(RB3LYP) =  -1162.12318653     A.U. after   11 cycles
 SCF Done:  E(RB3LYP) =  -1162.12323737     A.U. after   11 cycles
 SCF Done:  E(RB3LYP) =  -1162.12327036     A.U. after   10 cycles
 SCF Done:  E(RB3LYP) =  -1162.12334058     A.U. after   11 cycles
 SCF Done:  E(RB3LYP) =  -1162.12336502     A.U. after   11 cycles
 SCF Done:  E(RB3LYP) =  -1162.12337434     A.U. after    9 cycles
 SCF Done:  E(RB3LYP) =  -1162.12338639     A.U. after   10 cycles
 SCF Done:  E(RB3LYP) =  -1162.12339802     A.U. after   11 cycles
 SCF Done:  E(RB3LYP) =  -1162.12340782     A.U. after   11 cycles
 SCF Done:  E(RB3LYP) =  -1162.12341443     A.U. after   11 cycles
 SCF Done:  E(RB3LYP) =  -1162.12341612     A.U. after    9 cycles
 SCF Done:  E(RB3LYP) =  -1162.12341626     A.U. after    8 cycles
 Optimization completed.
    -- Stationary point found.
 Normal termination of Gaussian 09 at Fri Feb 16 22:10:10 2018.

 --------------------------------------------------------------------
 #N Geom=AllCheck Guess=TCheck SCRF=Check GenChk RB3LYP/6-31G(d) Freq
 --------------------------------------------------------------------

 Structure from the checkpoint file:  frag48-conf0.chk
 -----------------------------
 Optimization for frag48-conf0
 -----------------------------
 Charge =  0 Multiplicity = 1

                         Standard orientation:
 ---------------------------------------------------------------------
 Center     Atomic      Atomic             Coordinates (Angstroms)
 Number     Number       Type             X           Y           Z
 ---------------------------------------------------------------------
      1          6           0        4.297155   -1.462952   -0.285876
      2          6           0        3.238182   -2.044441   -0.986786
      3          6           0        4.028756   -0.621717    0.795454
      4          6           0        1.920352   -1.784056   -0.607858
      5          6           0        2.709372   -0.359853    1.169605
      6          6           0        1.637693   -0.936108    0.474224
      7          6           0        0.199218    1.764700    0.043870
      8          6           0        1.995930    3.244021   -0.763731
      9          6           0       -4.333237    0.171958   -0.896121
     10          6           0        0.202499   -0.634839    0.848384
     11          6           0       -0.468847    0.388407   -0.113703
     12          7           0        1.153919    2.063354   -0.874382
     13          7           0       -1.891488    0.632257    0.157012
     14          8           0       -0.127617    2.509374    0.964655
     15          8           0       -3.522505   -1.000261    1.326872
     16          8           0       -2.384907   -1.631215   -0.873668
     17         16           0       -2.996920   -0.629086    0.008341
     18          1           0        5.323745   -1.670105   -0.575961
     19          1           0        3.437865   -2.709517   -1.823016
     20          1           0        4.846703   -0.171928    1.352385
     21          1           0        1.098558   -2.252952   -1.145421
     22          1           0        2.506097    0.295997    2.013092
     23          1           0        1.498537    3.944729   -0.092362
     24          1           0        2.125000    3.709206   -1.745883
     25          1           0        2.982347    2.995906   -0.352524
     26          1           0       -5.120233   -0.573916   -1.030365
     27          1           0       -4.706481    1.012202   -0.307568
     28          1           0       -3.951649    0.510497   -1.860030
     29          1           0       -0.390673   -1.553478    0.813947
     30          1           0        0.143123   -0.234732    1.866804
     31          1           0       -0.383249    0.023662   -1.140738
     32          1           0        1.441003    1.331053   -1.509214
     33          1           0       -2.019191    1.165572    1.017340
 ---------------------------------------------------------------------

 SCF Done:  E(RB3LYP) =  -1162.12341626     A.U. after    1 cycles

 Isotropic polarizability for W=    0.000000      147.37 Bohr**3.
 End of Minotr Frequency-dependent properties file   721 does not exist.

                     1                      2                      3
                     A                      A                      A
 Frequencies --    18.9258                25.6819                29.1710
 Red. masses --     5.3488                 5.4810                 4.1878
 Frc consts  --     0.0011                 0.0021                 0.0021
 IR Inten    --     3.6759                 0.6967                 2.8809

                     4                      5                      6
                     A                      A                      A
 Frequencies --    48.9163                59.0583                75.2502
 Red. masses --     3.6262                 4.5105                 1.3223
 Frc consts  --     0.0051                 0.0093                 0.0044
 IR Inten    --     1.0347                 3.6115                 1.9398

                     7                      8                      9
                     A                      A                      A
 Frequencies --    83.1710               108.9829               145.9471
 Red. masses --     2.9965                 3.9367                 4.1038
 Frc consts  --     0.0122                 0.0275                 0.0515
 IR Inten    --     6.2231                 3.9179                 1.5342

                    10                     11                     12
                     A                      A                      A
 Frequencies --   197.5151               214.9674               225.6927
 Red. masses --     3.9049                 1.4582                 2.5458
 Frc consts  --     0.0898                 0.0397                 0.0764
 IR Inten    --     3.5165                 0.5176                 1.6218

                    13                     14                     15
                     A                      A                      A
 Frequencies --   234.5309               247.7549               298.0034
 Red. masses --     6.3910                 3.3764                 4.1857
 Frc consts  --     0.2071                 0.1221                 0.2190
 IR Inten    --     0.3395                 2.0268                11.2955

                    16                     17                     18
                     A                      A                      A
 Frequencies --   328.6072               343.2522               360.1178
 Red. masses --     4.2108                 4.2299                 2.1996
 Frc consts  --     0.2679                 0.2936                 0.1681
 IR Inten    --    14.9878                16.5415                 7.4880

                    19                     20                     21
                     A                      A                      A
 Frequencies --   374.3154               418.7360               453.9256
 Red. masses --     3.6065                 2.9993                 4.4518
 Frc consts  --     0.2977                 0.3098                 0.5405
 IR Inten    --    15.2414                 0.0823                18.6217

                    22                     23                     24
                     A                      A                      A
 Frequencies --   489.3265               506.6424               516.8160
 Red. masses --     5.5603                 5.2939                 1.7653
 Frc consts  --     0.7844                 0.8006                 0.2778
 IR Inten    --    30.1351                25.6447               140.4778

                    25                     26                     27
                     A                      A                      A
 Frequencies --   531.2841               602.3849               635.9272
 Red. masses --     2.0287                 4.8924                 6.2821
 Frc consts  --     0.3374                 1.0460                 1.4968
 IR Inten    --     4.5631                24.5063                 0.1480

                    28                     29                     30
                     A                      A                      A
 Frequencies --   658.1745               682.0181               718.6259
 Red. masses --     2.2261                 3.1118                 2.0241
 Frc consts  --     0.5682                 0.8528                 0.6159
 IR Inten    --    57.0074                10.0568                28.1532

                    31                     32                     33
                     A                      A                      A
 Frequencies --   751.7653               759.3888               775.3780
 Red. masses --     2.6811                 4.6399                 2.1189
 Frc consts  --     0.8927                 1.5765                 0.7506
 IR Inten    --    19.7660                71.0569                 4.9675

                    34                     35                     36
                     A                      A                      A
 Frequencies --   833.6664               861.9490               868.2987
 Red. masses --     3.7652                 2.5412                 1.2793
 Frc consts  --     1.5418                 1.1124                 0.5683
 IR Inten    --     9.8861                22.1487                 1.7015

                    37                     38                     39
                     A                      A                      A
 Frequencies --   893.1165               932.4475               974.3330
 Red. masses --     2.4453                 1.5186                 1.3507
 Frc consts  --     1.1492                 0.7780                 0.7555
 IR Inten    --   103.3379                13.8123                 0.0739

                    40                     41                     42
                     A                      A                      A
 Frequencies --   993.9029               995.9859               999.2467
 Red. masses --     1.5152                 1.5822                 1.3034
 Frc consts  --     0.8819                 0.9247                 0.7668
 IR Inten    --    10.4713                47.5365                14.8471

                    43                     44                     45
                     A                      A                      A
 Frequencies --  1005.9910              1017.9959              1018.4559
 Red. masses --     1.9070                 6.1457                 3.0318
 Frc consts  --     1.1371                 3.7525                 1.8528
 IR Inten    --     8.6175                 0.4929                12.7924

                    46                     47                     48
                     A                      A                      A
 Frequencies --  1058.7895              1065.3638              1109.0463
 Red. masses --     2.2345                 3.6283                 1.7639
 Frc consts  --     1.4759                 2.4263                 1.2782
 IR Inten    --     2.3286                30.5677                33.3695

                    49                     50                     51
                     A                      A                      A
 Frequencies --  1119.3022              1139.8586              1157.5549
 Red. masses --     5.3049                 4.6252                 1.3093
 Frc consts  --     3.9158                 3.5407                 1.0336
 IR Inten    --   113.7760                85.9005                13.5282

                    52                     53                     54
                     A                      A                      A
 Frequencies --  1185.9509              1192.4884              1195.0423
 Red. masses --     1.5591                 1.1549                 1.2828
 Frc consts  --     1.2920                 0.9676                 1.0794
 IR Inten    --    20.8953                 2.1541                 8.3916

                    55                     56                     57
                     A                      A                      A
 Frequencies --  1214.7342              1233.7722              1246.8652
 Red. masses --     1.1531                 2.7313                 1.5840
 Frc consts  --     1.0025                 2.4495                 1.4510
 IR Inten    --     0.2430                 0.0629                30.2585

                    58                     59                     60
                     A                      A                      A
 Frequencies --  1300.5670              1327.9546              1351.4148
 Red. masses --     1.7461                 3.4479                 2.3051
 Frc consts  --     1.7401                 3.5824                 2.4804
 IR Inten    --    77.0371               147.0962                 6.0024

                    61                     62                     63
                     A                      A                      A
 Frequencies --  1365.2600              1374.7975              1380.6897
 Red. masses --     1.9708                 1.5425                 1.2421
 Frc consts  --     2.1644                 1.7177                 1.3951
 IR Inten    --     2.1878                66.7602                 3.1343

                    64                     65                     66
                     A                      A                      A
 Frequencies --  1383.6823              1455.4954              1461.0891
 Red. masses --     1.2347                 1.2921                 1.1831
 Frc consts  --     1.3928                 1.6127                 1.4881
 IR Inten    --     7.2789                93.8745                23.2142

                    67                     68                     69
                     A                      A                      A
 Frequencies --  1484.1718              1486.6632              1501.7199
 Red. masses --     1.0490                 1.0639                 2.1496
 Frc consts  --     1.3614                 1.3854                 2.8562
 IR Inten    --     4.1509                 2.8852                 6.6573

                    70                     71                     72
                     A                      A                      A
 Frequencies --  1514.6919              1518.6313              1530.2143
 Red. masses --     1.1150                 1.1139                 1.0848
 Frc consts  --     1.5072                 1.5136                 1.4966
 IR Inten    --     4.6101                34.1269                10.6950

                    73                     74                     75
                     A                      A                      A
 Frequencies --  1545.9333              1591.1460              1642.1912
 Red. masses --     2.1940                 1.7349                 5.4079
 Frc consts  --     3.0894                 2.5878                 8.5926
 IR Inten    --    10.6065               126.1169                 1.2544

                    76                     77                     78
                     A                      A                      A
 Frequencies --  1663.8242              1777.6229              3051.0404
 Red. masses --     5.5022                 8.6385                 1.0405
 Frc consts  --     8.9744                16.0830                 5.7070
 IR Inten    --     5.0454               202.2576                44.3597

                    79                     80                     81
                     A                      A                      A
 Frequencies --  3070.8799              3087.1791              3106.3773
 Red. masses --     1.0610                 1.0296                 1.0858
 Frc consts  --     5.8953                 5.7813                 6.1730
 IR Inten    --     8.2987                 0.5309                11.8225

                    82                     83                     84
                     A                      A                      A
 Frequencies --  3114.1309              3125.8621              3175.4636
 Red. masses --     1.1007                 1.1035                 1.0862
 Frc consts  --     6.2894                 6.3527                 6.4532
 IR Inten    --    27.8868                 5.2329                 4.8905

                    85                     86                     87
                     A                      A                      A
 Frequencies --  3179.1381              3180.7034              3184.0454
 Red. masses --     1.0873                 1.0997                 1.1064
 Frc consts  --     6.4744                 6.5550                 6.6089
 IR Inten    --     0.9208                 1.4107                 0.8822

                    88                     89                     90
                     A                      A                      A
 Frequencies --  3189.0429              3197.2742              3197.7427
 Red. masses --     1.0903                 1.0940                 1.1080
 Frc consts  --     6.5333                 6.5894                 6.6753
 IR Inten    --     7.6663                32.4023                 1.1978

                    91                     92                     93
                     A                      A                      A
 Frequencies --  3208.6312              3510.6723              3619.8625
 Red. masses --     1.0979                 1.0742                 1.0777
 Frc consts  --     6.6595                 7.8006                 8.3199
 IR Inten    --    21.3243                51.3011                20.7439

 - Thermochemistry -
 -------------------
 Temperature   298.150 Kelvin.  Pressure   1.00000 Atm.
 Atom     1 has atomic number  6 and mass  12.00000

 Molecular mass:   256.08816 amu.
 Principal axes and moments of inertia in atomic units:
                           1         2         3
     Eigenvalues --  2724.043276964.785228524.14423
           X            0.99999  -0.00121   0.00378
           Y            0.00123   0.99998  -0.00537
           Z           -0.00377   0.00537   0.99998
 This molecule is an asymmetric top.
 Rotational symmetry number  1.
 Warning -- assumption of classical behavior for rotation
           may cause significant error
 Rotational temperatures (Kelvin)      0.03180     0.01244     0.01016
 Rotational constants (GHZ):           0.66252     0.25912     0.21172
 Zero-point vibrational energy     706336.4 (Joules/Mol)
                                  168.81844 (Kcal/Mol)
 Warning -- explicit consideration of  26 degrees of freedom as
           vibrations may cause significant error
 Vibrational temperatures:     27.23    36.95    41.97    70.38    84.97
          (Kelvin)            108.27   119.66   156.80   209.99   284.18
                              309.29   324.72   337.44   356.46   428.76
                              472.79   493.86   518.13   538.56   602.47
                              653.10   704.03   728.94   743.58   764.40
                              866.70   914.96   946.97   981.27  1033.94
                             1081.62  1092.59  1115.59  1199.46  1240.15
                             1249.29  1284.99  1341.58  1401.85  1430.00
                             1433.00  1437.69  1447.39  1464.67  1465.33
                             1523.36  1532.82  1595.67  1610.42  1640.00
                             1665.46  1706.32  1715.72  1719.40  1747.73
                             1775.12  1793.96  1871.22  1910.63  1944.38
                             1964.30  1978.02  1986.50  1990.81  2094.13
                             2102.18  2135.39  2138.97  2160.64  2179.30
                             2184.97  2201.63  2224.25  2289.30  2362.74
                             2393.87  2557.60  4389.76  4418.31  4441.76
                             4469.38  4480.53  4497.41  4568.78  4574.06
                             4576.32  4581.13  4588.32  4600.16  4600.83
                             4616.50  5051.07  5208.17

 Zero-point correction=                           0.269029 (Hartree/Particle)
 Thermal correction to Energy=                    0.286843
 Thermal correction to Enthalpy=                  0.287787
 Thermal correction to Gibbs Free Energy=         0.219982
 Sum of electronic and zero-point Energies=          -1161.854387
 Sum of electronic and thermal Energies=             -1161.836573
 Sum of electronic and thermal Enthalpies=           -1161.835629
 Sum of electronic and thermal Free Energies=        -1161.903434

                     E (Thermal)             CV                S
                      KCal/Mol        Cal/Mol-Kelvin    Cal/Mol-Kelvin
 Total                  179.997             64.855            142.707
 Electronic               0.000              0.000              0.000
 Translational            0.889              2.981             42.521
 Rotational               0.889              2.981             33.447
 Vibrational            178.219             58.893             66.739
 Vibration     1          0.593              1.986              6.744
 Vibration     2          0.593              1.985              6.138
 Vibration     3          0.593              1.984              5.885
 Vibration     4          0.595              1.978              4.861
 Vibration     5          0.596              1.974              4.488
 Vibration     6          0.599              1.966              4.011
 Vibration     7          0.600              1.961              3.815
 Vibration     8          0.606              1.942              3.287
 Vibration     9          0.617              1.907              2.724
 Vibration    10          0.637              1.843              2.156
 Vibration    11          0.645              1.818              2.001
 Vibration    12          0.650              1.802              1.913
 Vibration    13          0.654              1.788              1.844
 Vibration    14          0.661              1.766              1.747
 Vibration    15          0.691              1.677              1.428
 Vibration    16          0.712              1.618              1.267
 Vibration    17          0.722              1.589              1.197
 Vibration    18          0.735              1.554              1.122
 Vibration    19          0.745              1.525              1.062
 Vibration    20          0.782              1.430              0.896
 Vibration    21          0.812              1.352              0.784
 Vibration    22          0.845              1.274              0.685
 Vibration    23          0.862              1.235              0.642
 Vibration    24          0.872              1.213              0.617
 Vibration    25          0.886              1.181              0.584
 Vibration    26          0.961              1.027              0.446

 Normal termination of Gaussian 09 at Fri Feb 16 23:11:21 2018.
