 Gaussian 09, Revision C.01,
 Gaussian 09:  AM64L-G09RevC.01 23-Sep-2011

 ----------------------------------------------------------------------
 #HF/6-31G* Geom=AllCheck Guess=Read Pop=(MK,ReadRadii) Integral=(Grid=
 UltraFine) iop(6/33=2)
 ----------------------------------------------------------------------

 Structure from the checkpoint file:  frag25-conf1.chk
 -----------------------------
 Optimization for frag25-conf1
 -----------------------------
 Charge =  0 Multiplicity = 1

                         Standard orientation:
 ---------------------------------------------------------------------
 Center     Atomic      Atomic             Coordinates (Angstroms)
 Number     Number       Type             X           Y           Z
 ---------------------------------------------------------------------
      1          6           0        1.118965   -0.525263   -0.572278
      2          6           0        2.431958    2.100477    0.048053
      3          6           0        0.157009    3.198834    0.127096
      4          6           0        2.752764   -2.314170   -0.353727
      5          6           0        2.209702   -1.007274    1.653455
      6          6           0       -1.895783   -2.023684   -0.096341
      7          6           0        0.304673    0.662680   -0.013141
      8          6           0        0.968254    2.013445   -0.411258
      9          7           0       -1.044545    0.613388   -0.594481
     10          7           0        1.940057   -1.257260    0.243453
     11          8           0        0.984920   -0.786703   -1.770240
     12          8           0       -3.488518    0.023744   -0.569438
     13          8           0       -2.126786   -0.004782    1.601611
     14         16           0       -2.259309   -0.268491    0.165574
     15          1           0        2.510467    2.051444    1.141600
     16          1           0        3.052116    1.304099   -0.377393
     17          1           0        2.864961    3.056333   -0.265936
     18          1           0        0.171351    3.216908    1.224512
     19          1           0       -0.885544    3.147216   -0.195112
     20          1           0        0.585057    4.143396   -0.227673
     21          1           0        3.819095   -2.059789   -0.291967
     22          1           0        2.465747   -2.425877   -1.397711
     23          1           0        2.591645   -3.258179    0.180577
     24          1           0        2.168297   -1.955288    2.202567
     25          1           0        1.476541   -0.333853    2.092209
     26          1           0        3.209975   -0.575913    1.793614
     27          1           0       -2.712890   -2.586293    0.361118
     28          1           0       -1.849716   -2.223399   -1.168428
     29          1           0       -0.948484   -2.274926    0.383892
     30          1           0        0.172938    0.636236    1.068759
     31          1           0        0.957914    2.045596   -1.509731
     32          1           0       -1.011277    0.406911   -1.593508
 ---------------------------------------------------------------------

 SCF Done:  E(RHF) =  -1044.34708371     A.U. after   13 cycles

 The electronic state is 1-A.
 Alpha  occ. eigenvalues --  -92.20980 -20.55533 -20.55204 -20.54323 -15.61846
 Alpha  occ. eigenvalues --  -15.60652 -11.37317 -11.29939 -11.28855 -11.27764
 Alpha  occ. eigenvalues --  -11.27275 -11.25278 -11.23338 -11.21835  -9.18060
 Alpha  occ. eigenvalues --   -6.86655  -6.86639  -6.86546  -1.45116  -1.39701
 Alpha  occ. eigenvalues --   -1.33333  -1.26262  -1.23863  -1.09441  -1.03278
 Alpha  occ. eigenvalues --   -0.99717  -0.98369  -0.94164  -0.92998  -0.83275
 Alpha  occ. eigenvalues --   -0.80464  -0.76266  -0.73674  -0.70185  -0.68269
 Alpha  occ. eigenvalues --   -0.67791  -0.66553  -0.65661  -0.63458  -0.61720
 Alpha  occ. eigenvalues --   -0.61183  -0.60251  -0.59759  -0.58444  -0.57729
 Alpha  occ. eigenvalues --   -0.56926  -0.55915  -0.54886  -0.54519  -0.54070
 Alpha  occ. eigenvalues --   -0.50836  -0.49456  -0.49101  -0.48331  -0.48067
 Alpha  occ. eigenvalues --   -0.46124  -0.46046  -0.44515  -0.41381  -0.39062
 Alpha virt. eigenvalues --    0.16469   0.19116   0.22246   0.22995   0.23718
 Alpha virt. eigenvalues --    0.24286   0.25803   0.26611   0.27284   0.27602
 Alpha virt. eigenvalues --    0.28192   0.28571   0.29496   0.30067   0.30544

 Mulliken atomic charges:
              1
     1  C    0.786900
     2  C   -0.498680
     3  C   -0.481248
     4  C   -0.301694
     5  C   -0.288401
     6  C   -0.716606
     7  C   -0.097816
     8  C   -0.150200
     9  N   -0.856080
    10  N   -0.670973
    11  O   -0.660552
    12  O   -0.674899
    13  O   -0.705542
    14  S    1.596693
    15  H    0.156603
    16  H    0.173123
    17  H    0.179765
    18  H    0.158280
    19  H    0.209098
    20  H    0.164045
    21  H    0.170704
    22  H    0.242083
    23  H    0.169760
    24  H    0.184982
    25  H    0.197270
    26  H    0.180182
    27  H    0.238286
    28  H    0.232395
    29  H    0.212999
    30  H    0.242487
    31  H    0.186912
    32  H    0.420120
 Sum of Mulliken atomic charges =   0.00000

 Dipole moment (field-independent basis, Debye):
    X=              6.0429    Y=             -2.4899    Z=              1.1775  Tot=              6.6409
 Quadrupole moment (field-independent basis, Debye-Ang):
   XX=           -105.3150   YY=            -84.3344   ZZ=           -100.6302
   XY=              4.7724   XZ=              6.9966   YZ=             -3.3204

 Normal termination of Gaussian 09 at Sat Feb 17 21:01:33 2018.
