 Gaussian 09, Revision C.01,
 Gaussian 09:  AM64L-G09RevC.01 23-Sep-2011

 ---------------------------------------------------------
 #B3LYP/6-31G* Integral=(Grid=UltraFine) freq Opt pop=none
 ---------------------------------------------------------

 99/9=1/99;
 -----------------------------
 Optimization for frag25-conf1
 -----------------------------
 Charge =  0 Multiplicity = 1

 SCF Done:  E(RB3LYP) =  -1048.99781467     A.U. after   15 cycles
 SCF Done:  E(RB3LYP) =  -1049.00250589     A.U. after   13 cycles
 SCF Done:  E(RB3LYP) =  -1049.00271977     A.U. after   13 cycles
 SCF Done:  E(RB3LYP) =  -1049.00292774     A.U. after   12 cycles
 SCF Done:  E(RB3LYP) =  -1049.00325120     A.U. after   12 cycles
 SCF Done:  E(RB3LYP) =  -1049.00311128     A.U. after   13 cycles
 SCF Done:  E(RB3LYP) =  -1049.00333387     A.U. after   12 cycles
 SCF Done:  E(RB3LYP) =  -1049.00338646     A.U. after   10 cycles
 SCF Done:  E(RB3LYP) =  -1049.00349366     A.U. after   12 cycles
 SCF Done:  E(RB3LYP) =  -1049.00356495     A.U. after   11 cycles
 SCF Done:  E(RB3LYP) =  -1049.00368793     A.U. after   10 cycles
 SCF Done:  E(RB3LYP) =  -1049.00369832     A.U. after   10 cycles
 SCF Done:  E(RB3LYP) =  -1049.00370112     A.U. after    9 cycles
 SCF Done:  E(RB3LYP) =  -1049.00370331     A.U. after    9 cycles
 SCF Done:  E(RB3LYP) =  -1049.00370496     A.U. after    8 cycles
 SCF Done:  E(RB3LYP) =  -1049.00370626     A.U. after    9 cycles
 SCF Done:  E(RB3LYP) =  -1049.00370666     A.U. after    7 cycles
 SCF Done:  E(RB3LYP) =  -1049.00370683     A.U. after    7 cycles
 SCF Done:  E(RB3LYP) =  -1049.00370685     A.U. after    7 cycles
 Optimization completed.
    -- Stationary point found.
 Normal termination of Gaussian 09 at Fri Feb 16 20:27:31 2018.

 --------------------------------------------------------------------
 #N Geom=AllCheck Guess=TCheck SCRF=Check GenChk RB3LYP/6-31G(d) Freq
 --------------------------------------------------------------------

 Structure from the checkpoint file:  frag25-conf1.chk
 -----------------------------
 Optimization for frag25-conf1
 -----------------------------
 Charge =  0 Multiplicity = 1

                         Standard orientation:
 ---------------------------------------------------------------------
 Center     Atomic      Atomic             Coordinates (Angstroms)
 Number     Number       Type             X           Y           Z
 ---------------------------------------------------------------------
      1          6           0        1.118965   -0.525263   -0.572278
      2          6           0        2.431958    2.100477    0.048053
      3          6           0        0.157009    3.198834    0.127096
      4          6           0        2.752764   -2.314170   -0.353727
      5          6           0        2.209702   -1.007274    1.653455
      6          6           0       -1.895783   -2.023684   -0.096341
      7          6           0        0.304673    0.662680   -0.013141
      8          6           0        0.968254    2.013445   -0.411258
      9          7           0       -1.044545    0.613388   -0.594481
     10          7           0        1.940057   -1.257260    0.243453
     11          8           0        0.984920   -0.786703   -1.770240
     12          8           0       -3.488518    0.023744   -0.569438
     13          8           0       -2.126786   -0.004782    1.601611
     14         16           0       -2.259309   -0.268491    0.165574
     15          1           0        2.510467    2.051444    1.141600
     16          1           0        3.052116    1.304099   -0.377393
     17          1           0        2.864961    3.056333   -0.265936
     18          1           0        0.171351    3.216908    1.224512
     19          1           0       -0.885544    3.147216   -0.195112
     20          1           0        0.585057    4.143396   -0.227673
     21          1           0        3.819095   -2.059789   -0.291967
     22          1           0        2.465747   -2.425877   -1.397711
     23          1           0        2.591645   -3.258179    0.180577
     24          1           0        2.168297   -1.955288    2.202567
     25          1           0        1.476541   -0.333853    2.092209
     26          1           0        3.209975   -0.575913    1.793614
     27          1           0       -2.712890   -2.586293    0.361118
     28          1           0       -1.849716   -2.223399   -1.168428
     29          1           0       -0.948484   -2.274926    0.383892
     30          1           0        0.172938    0.636236    1.068759
     31          1           0        0.957914    2.045596   -1.509731
     32          1           0       -1.011277    0.406911   -1.593508
 ---------------------------------------------------------------------

 SCF Done:  E(RB3LYP) =  -1049.00370685     A.U. after    1 cycles

 Isotropic polarizability for W=    0.000000      122.58 Bohr**3.
 End of Minotr Frequency-dependent properties file   721 does not exist.

                     1                      2                      3
                     A                      A                      A
 Frequencies --    29.2956                47.8513                53.0087
 Red. masses --     4.8076                 3.1560                 4.2155
 Frc consts  --     0.0024                 0.0043                 0.0070
 IR Inten    --     3.9537                 3.1592                 0.8064

                     4                      5                      6
                     A                      A                      A
 Frequencies --    59.1961                77.1912               102.1095
 Red. masses --     2.5467                 2.9717                 1.2430
 Frc consts  --     0.0053                 0.0104                 0.0076
 IR Inten    --     2.5137                 5.0865                 0.0637

                     7                      8                      9
                     A                      A                      A
 Frequencies --   117.5434               135.4110               165.3361
 Red. masses --     3.2941                 1.3826                 2.8128
 Frc consts  --     0.0268                 0.0149                 0.0453
 IR Inten    --     0.2222                 0.3243                 0.7178

                    10                     11                     12
                     A                      A                      A
 Frequencies --   199.7718               212.1912               218.3348
 Red. masses --     1.6085                 1.7035                 1.2550
 Frc consts  --     0.0378                 0.0452                 0.0352
 IR Inten    --     0.6958                 1.3793                 1.0221

                    13                     14                     15
                     A                      A                      A
 Frequencies --   236.5483               251.6946               259.7149
 Red. masses --     2.5465                 1.5900                 1.7432
 Frc consts  --     0.0840                 0.0593                 0.0693
 IR Inten    --     1.4095                 1.3623                 2.3887

                    16                     17                     18
                     A                      A                      A
 Frequencies --   283.8805               317.6308               339.4664
 Red. masses --     3.4266                 3.3962                 3.3096
 Frc consts  --     0.1627                 0.2019                 0.2247
 IR Inten    --     4.1194                 2.6419                 0.7473

                    19                     20                     21
                     A                      A                      A
 Frequencies --   360.1447               368.0178               412.0020
 Red. masses --     2.9731                 3.1735                 2.6626
 Frc consts  --     0.2272                 0.2532                 0.2663
 IR Inten    --    16.1170                 4.0436                15.7800

                    22                     23                     24
                     A                      A                      A
 Frequencies --   423.0434               451.8413               483.4845
 Red. masses --     2.7666                 2.8935                 4.4316
 Frc consts  --     0.2917                 0.3481                 0.6103
 IR Inten    --     8.7385                 7.2911                 8.4177

                    25                     26                     27
                     A                      A                      A
 Frequencies --   501.0968               531.7161               617.9558
 Red. masses --     6.3149                 5.2720                 2.7463
 Frc consts  --     0.9342                 0.8782                 0.6179
 IR Inten    --    30.7627                35.9348                21.3858

                    28                     29                     30
                     A                      A                      A
 Frequencies --   651.2137               720.4343               746.7679
 Red. masses --     3.4036                 5.2894                 5.3024
 Frc consts  --     0.8504                 1.6175                 1.7422
 IR Inten    --    54.5236                10.4316               126.3490

                    31                     32                     33
                     A                      A                      A
 Frequencies --   819.5830               868.6187               905.1116
 Red. masses --     4.8871                 2.8778                 1.9687
 Frc consts  --     1.9341                 1.2793                 0.9503
 IR Inten    --    50.2077                 3.6946                21.3762

                    34                     35                     36
                     A                      A                      A
 Frequencies --   940.5302               948.8462               969.9358
 Red. masses --     1.8725                 1.3467                 1.7840
 Frc consts  --     0.9759                 0.7144                 0.9888
 IR Inten    --     2.4063                 1.1899                 5.5211

                    37                     38                     39
                     A                      A                      A
 Frequencies --   987.4806               996.4217              1006.0672
 Red. masses --     1.9495                 1.3482                 1.6107
 Frc consts  --     1.1201                 0.7887                 0.9606
 IR Inten    --    14.4496                 0.5492                62.1758

                    40                     41                     42
                     A                      A                      A
 Frequencies --  1083.1155              1085.2510              1133.7373
 Red. masses --     2.2534                 1.9555                 2.9766
 Frc consts  --     1.5576                 1.3570                 2.2542
 IR Inten    --    46.8303                35.6391               187.5504

                    43                     44                     45
                     A                      A                      A
 Frequencies --  1137.3414              1144.9775              1152.5160
 Red. masses --     1.3090                 2.3274                 2.5150
 Frc consts  --     0.9977                 1.7977                 1.9683
 IR Inten    --    20.8113                33.6483                28.9250

                    46                     47                     48
                     A                      A                      A
 Frequencies --  1184.6786              1189.5339              1204.3681
 Red. masses --     1.5719                 1.9398                 1.7612
 Frc consts  --     1.2998                 1.6172                 1.5051
 IR Inten    --    27.5478                40.5093                 4.2383

                    49                     50                     51
                     A                      A                      A
 Frequencies --  1275.2741              1294.1282              1314.2454
 Red. masses --     3.7293                 1.4031                 1.6862
 Frc consts  --     3.5734                 1.3845                 1.7160
 IR Inten    --    33.7681                 3.2311                23.5032

                    52                     53                     54
                     A                      A                      A
 Frequencies --  1348.7467              1369.4538              1380.0354
 Red. masses --     4.0733                 1.4139                 1.2131
 Frc consts  --     4.3658                 1.5623                 1.3612
 IR Inten    --   133.7238                 0.7141                 9.2880

                    55                     56                     57
                     A                      A                      A
 Frequencies --  1385.6396              1429.0466              1437.3140
 Red. masses --     1.3238                 1.2475                 2.0663
 Frc consts  --     1.4975                 1.5010                 2.5150
 IR Inten    --     3.5704                 2.3134               171.8156

                    58                     59                     60
                     A                      A                      A
 Frequencies --  1448.4722              1450.9231              1476.6706
 Red. masses --     1.2348                 1.1661                 1.4386
 Frc consts  --     1.5263                 1.4463                 1.8482
 IR Inten    --     3.9559                 8.4929                32.2754

                    61                     62                     63
                     A                      A                      A
 Frequencies --  1480.4579              1490.4243              1501.7740
 Red. masses --     1.0542                 1.1018                 1.1539
 Frc consts  --     1.3614                 1.4420                 1.5332
 IR Inten    --     5.4415                 8.6359                 9.2529

                    64                     65                     66
                     A                      A                      A
 Frequencies --  1511.2729              1518.5568              1521.3500
 Red. masses --     1.0481                 1.0516                 1.0452
 Frc consts  --     1.4104                 1.4288                 1.4253
 IR Inten    --     7.6027                 2.0697                 2.5971

                    67                     68                     69
                     A                      A                      A
 Frequencies --  1529.6969              1532.8795              1536.1994
 Red. masses --     1.0647                 1.0451                 1.0504
 Frc consts  --     1.4678                 1.4469                 1.4605
 IR Inten    --    13.1389                10.1696                 4.8651

                    70                     71                     72
                     A                      A                      A
 Frequencies --  1543.2977              1564.3375              1729.4242
 Red. masses --     1.0523                 1.2269                 9.0230
 Frc consts  --     1.4767                 1.7689                15.9002
 IR Inten    --    19.9056                27.7164               237.8718

                    73                     74                     75
                     A                      A                      A
 Frequencies --  3035.8487              3036.5598              3042.4108
 Red. masses --     1.0693                 1.0530                 1.0424
 Frc consts  --     5.8063                 5.7208                 5.6850
 IR Inten    --    13.3630                12.3344                44.3301

                    76                     77                     78
                     A                      A                      A
 Frequencies --  3044.2048              3049.6997              3084.9374
 Red. masses --     1.0386                 1.0410                 1.0293
 Frc consts  --     5.6710                 5.7047                 5.7717
 IR Inten    --    45.5805                36.7001                 0.8804

                    79                     80                     81
                     A                      A                      A
 Frequencies --  3089.8252              3092.0466              3105.7900
 Red. masses --     1.1012                 1.1032                 1.1008
 Frc consts  --     6.1940                 6.2143                 6.2560
 IR Inten    --    55.9384                 1.2517                 7.7936

                    82                     83                     84
                     A                      A                      A
 Frequencies --  3112.6511              3121.4959              3142.9894
 Red. masses --     1.0999                 1.1021                 1.0859
 Frc consts  --     6.2784                 6.3269                 6.3202
 IR Inten    --    48.0942                35.0614                 9.0754

                    85                     86                     87
                     A                      A                      A
 Frequencies --  3151.7366              3183.8059              3190.3952
 Red. masses --     1.0990                 1.1065                 1.1077
 Frc consts  --     6.4318                 6.6084                 6.6429
 IR Inten    --    13.1882                 1.5150                 1.3867

                    88                     89                     90
                     A                      A                      A
 Frequencies --  3198.7196              3200.3802              3504.0243
 Red. masses --     1.0963                 1.0932                 1.0739
 Frc consts  --     6.6092                 6.5971                 7.7688
 IR Inten    --     0.1555                10.1732                33.6043

 - Thermochemistry -
 -------------------
 Temperature   298.150 Kelvin.  Pressure   1.00000 Atm.
 Atom     1 has atomic number  6 and mass  12.00000

 Molecular mass:   222.10381 amu.
 Principal axes and moments of inertia in atomic units:
                           1         2         3
     Eigenvalues --  2381.468223772.312224948.45565
           X            0.99980   0.01123   0.01675
           Y           -0.01117   0.99993  -0.00411
           Z           -0.01680   0.00392   0.99985
 This molecule is an asymmetric top.
 Rotational symmetry number  1.
 Warning -- assumption of classical behavior for rotation
           may cause significant error
 Rotational temperatures (Kelvin)      0.03637     0.02296     0.01750
 Rotational constants (GHZ):           0.75783     0.47842     0.36471
 Zero-point vibrational energy     715302.0 (Joules/Mol)
                                  170.96127 (Kcal/Mol)
 Warning -- explicit consideration of  27 degrees of freedom as
           vibrations may cause significant error
 Vibrational temperatures:     42.15    68.85    76.27    85.17   111.06
          (Kelvin)            146.91   169.12   194.83   237.88   287.43
                              305.30   314.13   340.34   362.13   373.67
                              408.44   457.00   488.42   518.17   529.49
                              592.78   608.66   650.10   695.63   720.97
                              765.02   889.10   936.95  1036.54  1074.43
                             1179.20  1249.75  1302.25  1353.21  1365.18
                             1395.52  1420.76  1433.63  1447.50  1558.36
                             1561.43  1631.19  1636.38  1647.37  1658.21
                             1704.49  1711.47  1732.81  1834.83  1861.96
                             1890.90  1940.54  1970.34  1985.56  1993.62
                             2056.08  2067.97  2084.03  2087.55  2124.60
                             2130.05  2144.39  2160.72  2174.38  2184.86
                             2188.88  2200.89  2205.47  2210.25  2220.46
                             2250.73  2488.25  4367.90  4368.93  4377.35
                             4379.93  4387.83  4438.53  4445.56  4448.76
                             4468.53  4478.41  4491.13  4522.06  4534.64
                             4580.78  4590.26  4602.24  4604.63  5041.50

 Zero-point correction=                           0.272444 (Hartree/Particle)
 Thermal correction to Energy=                    0.289904
 Thermal correction to Enthalpy=                  0.290848
 Thermal correction to Gibbs Free Energy=         0.226467
 Sum of electronic and zero-point Energies=          -1048.731263
 Sum of electronic and thermal Energies=             -1048.713803
 Sum of electronic and thermal Enthalpies=           -1048.712859
 Sum of electronic and thermal Free Energies=        -1048.777240

                     E (Thermal)             CV                S
                      KCal/Mol        Cal/Mol-Kelvin    Cal/Mol-Kelvin
 Total                  181.917             62.177            135.500
 Electronic               0.000              0.000              0.000
 Translational            0.889              2.981             42.097
 Rotational               0.889              2.981             32.164
 Vibrational            180.140             56.216             61.240
 Vibration     1          0.593              1.984              5.877
 Vibration     2          0.595              1.978              4.904
 Vibration     3          0.596              1.976              4.702
 Vibration     4          0.597              1.974              4.484
 Vibration     5          0.599              1.964              3.961
 Vibration     6          0.604              1.947              3.414
 Vibration     7          0.608              1.935              3.140
 Vibration     8          0.613              1.918              2.868
 Vibration     9          0.624              1.885              2.488
 Vibration    10          0.638              1.840              2.135
 Vibration    11          0.643              1.822              2.025
 Vibration    12          0.646              1.813              1.973
 Vibration    13          0.655              1.785              1.829
 Vibration    14          0.664              1.760              1.719
 Vibration    15          0.668              1.746              1.664
 Vibration    16          0.682              1.704              1.510
 Vibration    17          0.704              1.640              1.322
 Vibration    18          0.719              1.597              1.215
 Vibration    19          0.735              1.554              1.121
 Vibration    20          0.741              1.538              1.088
 Vibration    21          0.776              1.444              0.920
 Vibration    22          0.785              1.420              0.882
 Vibration    23          0.811              1.357              0.790
 Vibration    24          0.840              1.287              0.701
 Vibration    25          0.856              1.248              0.655
 Vibration    26          0.887              1.180              0.583
 Vibration    27          0.978              0.994              0.420

 Optimization completed.
    -- Stationary point found.
 Normal termination of Gaussian 09 at Fri Feb 16 21:16:32 2018.
