 Gaussian 09, Revision C.01,
 Gaussian 09:  AM64L-G09RevC.01 23-Sep-2011

 ---------------------------------------------------------
 #B3LYP/6-31G* Integral=(Grid=UltraFine) freq Opt pop=none
 ---------------------------------------------------------

 99/9=1/99;
 ----------------------------
 Optimization for frag5-conf2
 ----------------------------
 Charge =  0 Multiplicity = 1

 SCF Done:  E(RB3LYP) =  -939.168153621     A.U. after   15 cycles
 SCF Done:  E(RB3LYP) =  -939.169854267     A.U. after   12 cycles
 SCF Done:  E(RB3LYP) =  -939.170025875     A.U. after   11 cycles
 SCF Done:  E(RB3LYP) =  -939.170053123     A.U. after   11 cycles
 SCF Done:  E(RB3LYP) =  -939.170083222     A.U. after   10 cycles
 SCF Done:  E(RB3LYP) =  -939.170127212     A.U. after   11 cycles
 SCF Done:  E(RB3LYP) =  -939.170392343     A.U. after   13 cycles
 SCF Done:  E(RB3LYP) =  -939.170701870     A.U. after   13 cycles
 SCF Done:  E(RB3LYP) =  -939.170926015     A.U. after   13 cycles
 SCF Done:  E(RB3LYP) =  -939.171178753     A.U. after   12 cycles
 SCF Done:  E(RB3LYP) =  -939.172037890     A.U. after   12 cycles
 SCF Done:  E(RB3LYP) =  -939.172035220     A.U. after   11 cycles
 SCF Done:  E(RB3LYP) =  -939.172053706     A.U. after   11 cycles
 SCF Done:  E(RB3LYP) =  -939.172062318     A.U. after    9 cycles
 SCF Done:  E(RB3LYP) =  -939.172086586     A.U. after   11 cycles
 SCF Done:  E(RB3LYP) =  -939.172092974     A.U. after    9 cycles
 SCF Done:  E(RB3LYP) =  -939.172104409     A.U. after   11 cycles
 SCF Done:  E(RB3LYP) =  -939.172105713     A.U. after    9 cycles
 SCF Done:  E(RB3LYP) =  -939.172106026     A.U. after    8 cycles
 Optimization completed.
    -- Stationary point found.
 Normal termination of Gaussian 09 at Fri Feb 16 17:59:50 2018.

 --------------------------------------------------------------------
 #N Geom=AllCheck Guess=TCheck SCRF=Check GenChk RB3LYP/6-31G(d) Freq
 --------------------------------------------------------------------

 Structure from the checkpoint file:  frag5-conf2.chk
 ----------------------------
 Optimization for frag5-conf2
 ----------------------------
 Charge =  0 Multiplicity = 1

                         Standard orientation:
 ---------------------------------------------------------------------
 Center     Atomic      Atomic             Coordinates (Angstroms)
 Number     Number       Type             X           Y           Z
 ---------------------------------------------------------------------
      1          6           0        2.251891    1.945292    0.414098
      2          6           0        0.924998    2.171554    0.040909
      3          6           0        2.776546    0.654361    0.407098
      4          6           0        0.628146   -0.193566   -0.360901
      5          6           0        0.105075    1.108095   -0.347251
      6          6           0        1.950802   -0.401844    0.016943
      7          6           0       -2.880403   -0.450923    0.000823
      8          6           0       -3.804728   -0.925008    1.112003
      9          6           0       -1.342347    1.339517   -0.745152
     10          7           0       -2.308048    0.778638    0.194916
     11          8           0       -2.673142   -1.125118   -1.001924
     12         17           0        2.604579   -2.036815   -0.002547
     13          1           0        2.882618    2.778006    0.713017
     14          1           0        0.526668    3.183527    0.047968
     15          1           0        3.805084    0.464649    0.694628
     16          1           0        0.003561   -1.025963   -0.669187
     17          1           0       -4.764775   -1.207578    0.670844
     18          1           0       -3.377675   -1.824306    1.567732
     19          1           0       -3.976646   -0.178356    1.893662
     20          1           0       -1.535153    2.413306   -0.845764
     21          1           0       -1.553637    0.864719   -1.706716
     22          1           0       -2.406309    1.223467    1.096670
 ---------------------------------------------------------------------

 SCF Done:  E(RB3LYP) =  -939.172106026     A.U. after    1 cycles

 Isotropic polarizability for W=    0.000000      108.84 Bohr**3.
 End of Minotr Frequency-dependent properties file   721 does not exist.

                     1                      2                      3
                     A                      A                      A
 Frequencies --    27.6196                41.6394                54.2104
 Red. masses --     4.1136                 2.3654                 2.7496
 Frc consts  --     0.0018                 0.0024                 0.0048
 IR Inten    --     2.3385                 0.2131                11.0701

                     4                      5                      6
                     A                      A                      A
 Frequencies --    66.8404               160.9655               183.1878
 Red. masses --     1.8721                 5.6619                 6.7288
 Frc consts  --     0.0049                 0.0864                 0.1330
 IR Inten    --     2.8994                 1.0703                 2.9857

                     7                      8                      9
                     A                      A                      A
 Frequencies --   205.8149               286.1095               306.9123
 Red. masses --     4.7267                 3.3857                 4.1999
 Frc consts  --     0.1180                 0.1633                 0.2331
 IR Inten    --     2.9271                 3.0488                 0.6684

                    10                     11                     12
                     A                      A                      A
 Frequencies --   372.0547               413.7621               439.4791
 Red. masses --     2.7955                10.9226                 2.7874
 Frc consts  --     0.2280                 1.1017                 0.3172
 IR Inten    --     1.7896                 7.9339                 3.4815

                    13                     14                     15
                     A                      A                      A
 Frequencies --   451.1347               473.0183               524.1948
 Red. masses --     1.3148                 2.9522                 4.8331
 Frc consts  --     0.1577                 0.3892                 0.7825
 IR Inten    --   100.5664                19.7657                 6.1391

                    16                     17                     18
                     A                      A                      A
 Frequencies --   608.3841               618.4110               653.6624
 Red. masses --     4.2721                 3.0098                 3.3091
 Frc consts  --     0.9316                 0.6782                 0.8330
 IR Inten    --    11.2434                 0.7353                 0.9534

                    19                     20                     21
                     A                      A                      A
 Frequencies --   695.4332               722.1454               798.9529
 Red. masses --     5.5235                 2.5303                 1.5000
 Frc consts  --     1.5739                 0.7774                 0.5641
 IR Inten    --    18.7506                26.0900                28.3802

                    22                     23                     24
                     A                      A                      A
 Frequencies --   854.8872               883.3801               913.5679
 Red. masses --     2.7750                 3.5255                 1.4550
 Frc consts  --     1.1949                 1.6209                 0.7155
 IR Inten    --     3.3828                13.2618                 1.1757

                    25                     26                     27
                     A                      A                      A
 Frequencies --   936.8347               976.1651              1002.1593
 Red. masses --     1.4130                 1.2863                 1.6598
 Frc consts  --     0.7307                 0.7221                 0.9822
 IR Inten    --     9.3292                 0.2057                 3.2036

                    28                     29                     30
                     A                      A                      A
 Frequencies --  1015.3827              1038.2495              1068.3340
 Red. masses --     6.1733                 2.5435                 1.7018
 Frc consts  --     3.7499                 1.6154                 1.1444
 IR Inten    --     3.2308                 5.9104                 8.6924

                    31                     32                     33
                     A                      A                      A
 Frequencies --  1103.2491              1111.9056              1128.9268
 Red. masses --     3.2539                 2.1898                 1.5864
 Frc consts  --     2.3335                 1.5951                 1.1913
 IR Inten    --    18.4356                24.3414                 1.7503

                    34                     35                     36
                     A                      A                      A
 Frequencies --  1201.6128              1230.4668              1266.4084
 Red. masses --     1.1468                 2.6638                 1.4884
 Frc consts  --     0.9756                 2.3763                 1.4064
 IR Inten    --     1.6107                26.6785                25.3179

                    37                     38                     39
                     A                      A                      A
 Frequencies --  1288.6216              1339.4309              1356.6055
 Red. masses --     1.8002                 1.3621                 3.3762
 Frc consts  --     1.7612                 1.4398                 3.6609
 IR Inten    --   129.1281                13.3588                 4.9010

                    40                     41                     42
                     A                      A                      A
 Frequencies --  1400.4739              1426.4826              1475.7615
 Red. masses --     1.3392                 1.2604                 2.5867
 Frc consts  --     1.5475                 1.5111                 3.3191
 IR Inten    --    14.9791                23.3669                27.3552

                    43                     44                     45
                     A                      A                      A
 Frequencies --  1499.9387              1501.8809              1515.5751
 Red. masses --     1.0760                 1.0866                 1.0717
 Frc consts  --     1.4263                 1.4441                 1.4504
 IR Inten    --    16.7945                 2.9289                19.3999

                    46                     47                     48
                     A                      A                      A
 Frequencies --  1524.1220              1555.3920              1632.5833
 Red. masses --     2.2547                 1.8734                 5.7167
 Frc consts  --     3.0859                 2.6703                 8.9774
 IR Inten    --    27.4602               192.8670                31.7322

                    49                     50                     51
                     A                      A                      A
 Frequencies --  1653.9780              1778.2685              3064.5957
 Red. masses --     5.9071                 8.9897                 1.0358
 Frc consts  --     9.5210                16.7491                 5.7315
 IR Inten    --    16.9191               196.7701                 8.1823

                    52                     53                     54
                     A                      A                      A
 Frequencies --  3070.3286              3134.2989              3136.8365
 Red. masses --     1.0651                 1.0997                 1.1027
 Frc consts  --     5.9156                 6.3651                 6.3931
 IR Inten    --    32.8162                 1.3503                14.7822

                    55                     56                     57
                     A                      A                      A
 Frequencies --  3146.9193              3180.7367              3200.9203
 Red. masses --     1.1020                 1.0877                 1.0922
 Frc consts  --     6.4298                 6.4834                 6.5931
 IR Inten    --     9.9746                 8.6650                18.1408

                    58                     59                     60
                     A                      A                      A
 Frequencies --  3221.8442              3225.6085              3623.0295
 Red. masses --     1.0922                 1.0943                 1.0776
 Frc consts  --     6.6801                 6.7082                 8.3342
 IR Inten    --     1.2007                 5.6196                15.6453

 - Thermochemistry -
 -------------------
 Temperature   298.150 Kelvin.  Pressure   1.00000 Atm.
 Atom     1 has atomic number  6 and mass  12.00000

 Molecular mass:   183.04509 amu.
 Principal axes and moments of inertia in atomic units:
                           1         2         3
     Eigenvalues --  1504.792913846.245084937.98078
           X            0.99946   0.03114  -0.01076
           Y           -0.03125   0.99946  -0.01004
           Z            0.01044   0.01037   0.99989
 This molecule is an asymmetric top.
 Rotational symmetry number  1.
 Warning -- assumption of classical behavior for rotation
           may cause significant error
 Rotational temperatures (Kelvin)      0.05756     0.02252     0.01754
 Rotational constants (GHZ):           1.19933     0.46922     0.36548
 Zero-point vibrational energy     459304.4 (Joules/Mol)
                                  109.77638 (Kcal/Mol)
 Warning -- explicit consideration of  17 degrees of freedom as
           vibrations may cause significant error
 Vibrational temperatures:     39.74    59.91    78.00    96.17   231.59
          (Kelvin)            263.57   296.12   411.65   441.58   535.30
                              595.31   632.31   649.08   680.57   754.20
                              875.33   889.75   940.47  1000.57  1039.00
                             1149.51  1229.99  1270.99  1314.42  1347.89
                             1404.48  1441.88  1460.91  1493.81  1537.09
                             1587.33  1599.78  1624.27  1728.85  1770.37
                             1822.08  1854.04  1927.14  1951.85  2014.97
                             2052.39  2123.29  2158.07  2160.87  2180.57
                             2192.87  2237.86  2348.92  2379.70  2558.53
                             4409.26  4417.51  4509.55  4513.20  4527.71
                             4576.36  4605.40  4635.51  4640.93  5212.72

 Zero-point correction=                           0.174940 (Hartree/Particle)
 Thermal correction to Energy=                    0.186689
 Thermal correction to Enthalpy=                  0.187633
 Thermal correction to Gibbs Free Energy=         0.134634
 Sum of electronic and zero-point Energies=           -938.997166
 Sum of electronic and thermal Energies=              -938.985417
 Sum of electronic and thermal Enthalpies=            -938.984473
 Sum of electronic and thermal Free Energies=         -939.037472

                     E (Thermal)             CV                S
                      KCal/Mol        Cal/Mol-Kelvin    Cal/Mol-Kelvin
 Total                  117.149             42.565            111.546
 Electronic               0.000              0.000              0.000
 Translational            0.889              2.981             41.520
 Rotational               0.889              2.981             31.725
 Vibrational            115.372             36.603             38.301
 Vibration     1          0.593              1.984              5.993
 Vibration     2          0.594              1.981              5.180
 Vibration     3          0.596              1.976              4.658
 Vibration     4          0.598              1.970              4.244
 Vibration     5          0.622              1.890              2.538
 Vibration     6          0.631              1.863              2.296
 Vibration     7          0.640              1.832              2.080
 Vibration     8          0.684              1.699              1.497
 Vibration     9          0.697              1.661              1.379
 Vibration    10          0.744              1.530              1.071
 Vibration    11          0.777              1.440              0.913
 Vibration    12          0.800              1.384              0.828
 Vibration    13          0.810              1.358              0.792
 Vibration    14          0.830              1.310              0.729
 Vibration    15          0.879              1.196              0.600
 Vibration    16          0.967              1.014              0.435
 Vibration    17          0.978              0.993              0.419

 Optimization completed.
    -- Stationary point found.
 Normal termination of Gaussian 09 at Fri Feb 16 18:14:40 2018.
