 Gaussian 09, Revision C.01,
 Gaussian 09:  AM64L-G09RevC.01 23-Sep-2011

 ----------------------------------------------------------------------
 #HF/6-31G* Geom=AllCheck Guess=Read Pop=(MK,ReadRadii) Integral=(Grid=
 UltraFine) iop(6/33=2)
 ----------------------------------------------------------------------

 Structure from the checkpoint file:  frag5-conf2.chk
 ----------------------------
 Optimization for frag5-conf2
 ----------------------------
 Charge =  0 Multiplicity = 1

                         Standard orientation:
 ---------------------------------------------------------------------
 Center     Atomic      Atomic             Coordinates (Angstroms)
 Number     Number       Type             X           Y           Z
 ---------------------------------------------------------------------
      1          6           0        2.251891    1.945292    0.414098
      2          6           0        0.924998    2.171554    0.040909
      3          6           0        2.776546    0.654361    0.407098
      4          6           0        0.628146   -0.193566   -0.360901
      5          6           0        0.105075    1.108095   -0.347251
      6          6           0        1.950802   -0.401844    0.016943
      7          6           0       -2.880403   -0.450923    0.000823
      8          6           0       -3.804728   -0.925008    1.112003
      9          6           0       -1.342347    1.339517   -0.745152
     10          7           0       -2.308048    0.778638    0.194916
     11          8           0       -2.673142   -1.125118   -1.001924
     12         17           0        2.604579   -2.036815   -0.002547
     13          1           0        2.882618    2.778006    0.713017
     14          1           0        0.526668    3.183527    0.047968
     15          1           0        3.805084    0.464649    0.694628
     16          1           0        0.003561   -1.025963   -0.669187
     17          1           0       -4.764775   -1.207578    0.670844
     18          1           0       -3.377675   -1.824306    1.567732
     19          1           0       -3.976646   -0.178356    1.893662
     20          1           0       -1.535153    2.413306   -0.845764
     21          1           0       -1.553637    0.864719   -1.706716
     22          1           0       -2.406309    1.223467    1.096670
 ---------------------------------------------------------------------

 SCF Done:  E(RHF) =  -935.450906990     A.U. after   14 cycles

 The electronic state is 1-A.
 Alpha  occ. eigenvalues -- -104.82224 -20.52638 -15.59699 -11.36032 -11.30600
 Alpha  occ. eigenvalues --  -11.27878 -11.25643 -11.25292 -11.25174 -11.24844
 Alpha  occ. eigenvalues --  -11.24743 -11.24334 -10.55530  -8.02467  -8.02137
 Alpha  occ. eigenvalues --   -8.02134  -1.37830  -1.23539  -1.18366  -1.11634
 Alpha  occ. eigenvalues --   -1.05122  -1.00946  -0.99571  -0.93312  -0.83374
 Alpha  occ. eigenvalues --   -0.81124  -0.78777  -0.70690  -0.69208  -0.65753
 Alpha  occ. eigenvalues --   -0.65091  -0.63649  -0.61855  -0.58997  -0.58368
 Alpha  occ. eigenvalues --   -0.58097  -0.56478  -0.55349  -0.53358  -0.52545
 Alpha  occ. eigenvalues --   -0.50529  -0.49845  -0.46178  -0.44920  -0.42371
 Alpha  occ. eigenvalues --   -0.39569  -0.34123  -0.33390
 Alpha virt. eigenvalues --    0.12254   0.12871   0.18816   0.20203   0.21168
 Alpha virt. eigenvalues --    0.24628   0.26879   0.28261   0.30422   0.30820
 Alpha virt. eigenvalues --    0.31211   0.32497   0.33149   0.34016   0.34298

 Mulliken atomic charges:
              1
     1  C   -0.192009
     2  C   -0.229977
     3  C   -0.185458
     4  C   -0.205612
     5  C    0.027346
     6  C   -0.130971
     7  C    0.762992
     8  C   -0.576627
     9  C   -0.165351
    10  N   -0.791177
    11  O   -0.629673
    12  Cl  -0.008023
    13  H    0.212403
    14  H    0.203883
    15  H    0.230557
    16  H    0.271609
    17  H    0.212701
    18  H    0.209863
    19  H    0.168574
    20  H    0.188286
    21  H    0.242040
    22  H    0.384624
 Sum of Mulliken atomic charges =   0.00000

 Dipole moment (field-independent basis, Debye):
    X=             -1.0868    Y=              4.1707    Z=              3.0543  Tot=              5.2825
 Quadrupole moment (field-independent basis, Debye-Ang):
   XX=            -73.0068   YY=            -75.5775   ZZ=            -79.6487
   XY=              0.0668   XZ=             -6.9838   YZ=             -1.8825

 1\1\GINC-NODE036\SP\RHF\6-31G(d)\C9H10Cl1N1O1\WULSDORT\17-Feb-2018\0\\
 #HF/6-31G* Geom=AllCheck Guess=Read Pop=(MK,ReadRadii) Integral=(Grid=
 UltraFine) iop(6/33=2)\\Optimization for frag5-conf2\\0,1\C,0,2.244660
 9853,-0.7952474753,0.2262188291\C,0,1.0880308111,-0.2207233558,0.75841
 92117\C,0,2.9057161545,-1.8135770705,0.9101964119\C,0,1.2332967716,-1.
 6877474627,2.674170769\C,0,0.5753011392,-0.6598163787,1.9824255382\C,0
 ,2.3859889523,-2.2467668263,2.131620019\C,0,-0.6007774914,0.1948462315
 ,5.0403929848\C,0,-0.2247599239,1.1020510731,6.2020488937\C,0,-0.67551

 Normal termination of Gaussian 09 at Sat Feb 17 20:56:28 2018.
