 Gaussian 09, Revision C.01,
 Gaussian 09:  AM64L-G09RevC.01 23-Sep-2011

 ----------------------------------------------------------------------
 #HF/6-31G* Geom=AllCheck Guess=Read Pop=(MK,ReadRadii) Integral=(Grid=
 UltraFine) iop(6/33=2)
 ----------------------------------------------------------------------

 Structure from the checkpoint file:  frag1-conf2.chk
 ----------------------------
 Optimization for frag1-conf2
 ----------------------------
 Charge =  0 Multiplicity = 1

                         Standard orientation:
 ---------------------------------------------------------------------
 Center     Atomic      Atomic             Coordinates (Angstroms)
 Number     Number       Type             X           Y           Z
 ---------------------------------------------------------------------
      1          6           0        2.143676    0.037452    0.473069
      2          6           0       -0.920697   -0.405337    0.042251
      3          6           0        3.441436   -0.717878    0.209535
      4          6           0       -0.141254    2.019164    0.510295
      5          6           0       -3.122397   -1.315430    0.554139
      6          6           0       -3.018040    0.874747   -0.545949
      7          6           0        1.539390   -0.381617   -1.892854
      8          6           0       -0.032101    0.790014   -0.414636
      9          7           0       -2.287012   -0.247089    0.019241
     10          7           0        1.340640    0.316982   -0.624509
     11          8           0        1.869098    0.409216    1.605678
     12          8           0       -0.400748   -1.453346    0.409075
     13          1           0        4.076496   -0.212331   -0.526971
     14          1           0        3.975340   -0.776521    1.158542
     15          1           0        3.245432   -1.733475   -0.151996
     16          1           0       -0.012049    1.746010    1.555026
     17          1           0        0.642435    2.736145    0.247360
     18          1           0       -1.108812    2.512024    0.376377
     19          1           0       -3.810887   -0.913431    1.308428
     20          1           0       -2.477161   -2.066267    1.006824
     21          1           0       -3.717171   -1.781063   -0.243629
     22          1           0       -3.816393    0.496199   -1.197443
     23          1           0       -2.374717    1.513138   -1.149688
     24          1           0       -3.484768    1.490497    0.235738
     25          1           0        1.064565   -1.372447   -1.893881
     26          1           0        2.601045   -0.499913   -2.108641
     27          1           0        1.106450    0.215156   -2.702782
     28          1           0       -0.372079    1.103366   -1.409512
 ---------------------------------------------------------------------

 SCF Done:  E(RHF) =  -570.887156324     A.U. after   14 cycles

 The electronic state is 1-A.
 Alpha  occ. eigenvalues --  -20.52106 -20.51242 -15.59379 -15.58370 -11.35077
 Alpha  occ. eigenvalues --  -11.34408 -11.28632 -11.27632 -11.26337 -11.25475
 Alpha  occ. eigenvalues --  -11.22677 -11.21863  -1.37787  -1.36172  -1.24162
 Alpha  occ. eigenvalues --   -1.23595  -1.04850  -0.98629  -0.97460  -0.94368
 Alpha  occ. eigenvalues --   -0.93243  -0.87159  -0.76276  -0.71581  -0.69779
 Alpha  occ. eigenvalues --   -0.66424  -0.65623  -0.65303  -0.63341  -0.61851
 Alpha  occ. eigenvalues --   -0.59186  -0.57533  -0.57188  -0.56692  -0.56360
 Alpha  occ. eigenvalues --   -0.56042  -0.54959  -0.53507  -0.53074  -0.52385
 Alpha  occ. eigenvalues --   -0.51779  -0.49311  -0.48643  -0.41690  -0.40135
 Alpha  occ. eigenvalues --   -0.36870  -0.36564
 Alpha virt. eigenvalues --    0.18721   0.20425   0.21661   0.23455   0.25065
 Alpha virt. eigenvalues --    0.27427   0.28444   0.29205   0.30046   0.30592
 Alpha virt. eigenvalues --    0.31526   0.32062   0.32144   0.33064   0.33149

 Mulliken atomic charges:
              1
     1  C    0.797659
     2  C    0.800463
     3  C   -0.601601
     4  C   -0.481710
     5  C   -0.292971
     6  C   -0.283274
     7  C   -0.295312
     8  C   -0.058471
     9  N   -0.669481
    10  N   -0.654733
    11  O   -0.623418
    12  O   -0.630024
    13  H    0.181628
    14  H    0.217463
    15  H    0.197695
    16  H    0.234733
    17  H    0.181735
    18  H    0.150769
    19  H    0.164305
    20  H    0.239757
    21  H    0.160232
    22  H    0.177597
    23  H    0.180787
    24  H    0.177640
    25  H    0.190257
    26  H    0.185091
    27  H    0.170031
    28  H    0.183153
 Sum of Mulliken atomic charges =   0.00000

 Dipole moment (field-independent basis, Debye):
    X=             -2.2239    Y=              1.3630    Z=             -4.3785  Tot=              5.0966
 Quadrupole moment (field-independent basis, Debye-Ang):
   XX=            -61.0695   YY=            -75.8724   ZZ=            -76.8583
   XY=             -4.0878   XZ=             -5.7285   YZ=             -0.5946

 Normal termination of Gaussian 09 at Mon Feb 26 23:18:30 2018.
