 Gaussian 09, Revision C.01,
 Gaussian 09:  AM64L-G09RevC.01 23-Sep-2011

 ---------------------------------------------------------
 #B3LYP/6-31G* Integral=(Grid=UltraFine) freq Opt pop=none
 ---------------------------------------------------------

 99/9=1/99;
 ----------------------------
 Optimization for frag1-conf2
 ----------------------------
 Charge =  0 Multiplicity = 1

 SCF Done:  E(RB3LYP) =  -574.443167889     A.U. after   14 cycles
 SCF Done:  E(RB3LYP) =  -574.447899005     A.U. after   15 cycles
 SCF Done:  E(RB3LYP) =  -574.447265856     A.U. after   13 cycles
 SCF Done:  E(RB3LYP) =  -574.448540064     A.U. after   13 cycles
 SCF Done:  E(RB3LYP) =  -574.449010083     A.U. after   15 cycles
 SCF Done:  E(RB3LYP) =  -574.447818104     A.U. after   15 cycles
 SCF Done:  E(RB3LYP) =  -574.449209521     A.U. after   14 cycles
 SCF Done:  E(RB3LYP) =  -574.449495474     A.U. after   12 cycles
 SCF Done:  E(RB3LYP) =  -574.449611369     A.U. after   12 cycles
 SCF Done:  E(RB3LYP) =  -574.449709817     A.U. after   12 cycles
 SCF Done:  E(RB3LYP) =  -574.449843735     A.U. after   12 cycles
 SCF Done:  E(RB3LYP) =  -574.449878098     A.U. after   12 cycles
 SCF Done:  E(RB3LYP) =  -574.449911059     A.U. after   11 cycles
 SCF Done:  E(RB3LYP) =  -574.449925987     A.U. after   10 cycles
 SCF Done:  E(RB3LYP) =  -574.449933596     A.U. after   10 cycles
 SCF Done:  E(RB3LYP) =  -574.449935432     A.U. after    8 cycles
 SCF Done:  E(RB3LYP) =  -574.449935866     A.U. after    8 cycles
 Optimization completed.
    -- Stationary point found.
 Normal termination of Gaussian 09 at Mon Feb 26 22:25:18 2018.

 --------------------------------------------------------------------
 #N Geom=AllCheck Guess=TCheck SCRF=Check GenChk RB3LYP/6-31G(d) Freq
 --------------------------------------------------------------------

 Structure from the checkpoint file:  frag1-conf2.chk
 ----------------------------
 Optimization for frag1-conf2
 ----------------------------
 Charge =  0 Multiplicity = 1

                         Standard orientation:
 ---------------------------------------------------------------------
 Center     Atomic      Atomic             Coordinates (Angstroms)
 Number     Number       Type             X           Y           Z
 ---------------------------------------------------------------------
      1          6           0        2.143676    0.037452    0.473069
      2          6           0       -0.920697   -0.405337    0.042251
      3          6           0        3.441436   -0.717878    0.209535
      4          6           0       -0.141254    2.019164    0.510295
      5          6           0       -3.122397   -1.315430    0.554139
      6          6           0       -3.018040    0.874747   -0.545949
      7          6           0        1.539390   -0.381617   -1.892854
      8          6           0       -0.032101    0.790014   -0.414636
      9          7           0       -2.287012   -0.247089    0.019241
     10          7           0        1.340640    0.316982   -0.624509
     11          8           0        1.869098    0.409216    1.605678
     12          8           0       -0.400748   -1.453346    0.409075
     13          1           0        4.076496   -0.212331   -0.526971
     14          1           0        3.975340   -0.776521    1.158542
     15          1           0        3.245432   -1.733475   -0.151996
     16          1           0       -0.012049    1.746010    1.555026
     17          1           0        0.642435    2.736145    0.247360
     18          1           0       -1.108812    2.512024    0.376377
     19          1           0       -3.810887   -0.913431    1.308428
     20          1           0       -2.477161   -2.066267    1.006824
     21          1           0       -3.717171   -1.781063   -0.243629
     22          1           0       -3.816393    0.496199   -1.197443
     23          1           0       -2.374717    1.513138   -1.149688
     24          1           0       -3.484768    1.490497    0.235738
     25          1           0        1.064565   -1.372447   -1.893881
     26          1           0        2.601045   -0.499913   -2.108641
     27          1           0        1.106450    0.215156   -2.702782
     28          1           0       -0.372079    1.103366   -1.409512
 ---------------------------------------------------------------------

 SCF Done:  E(RB3LYP) =  -574.449935866     A.U. after    1 cycles

 Isotropic polarizability for W=    0.000000      102.89 Bohr**3.
 End of Minotr Frequency-dependent properties file   721 does not exist.

                     1                      2                      3
                     A                      A                      A
 Frequencies --    41.7578                65.0492                72.9617
 Red. masses --     4.6170                 2.9670                 2.0856
 Frc consts  --     0.0047                 0.0074                 0.0065
 IR Inten    --     2.0666                 3.1042                 2.4938

                     4                      5                      6
                     A                      A                      A
 Frequencies --   104.1119               112.1843               140.7482
 Red. masses --     2.4153                 2.5127                 1.1241
 Frc consts  --     0.0154                 0.0186                 0.0131
 IR Inten    --     2.5015                 0.5624                 0.3102

                     7                      8                      9
                     A                      A                      A
 Frequencies --   148.1417               158.0077               181.4833
 Red. masses --     1.5862                 1.6724                 1.3789
 Frc consts  --     0.0205                 0.0246                 0.0268
 IR Inten    --     1.5244                 2.1727                 1.3233

                    10                     11                     12
                     A                      A                      A
 Frequencies --   220.9474               225.7629               251.8268
 Red. masses --     1.2400                 2.2445                 1.8398
 Frc consts  --     0.0357                 0.0674                 0.0687
 IR Inten    --     0.6807                 1.2813                 1.5422

                    13                     14                     15
                     A                      A                      A
 Frequencies --   272.7463               299.4052               367.0651
 Red. masses --     2.7749                 2.6441                 3.5232
 Frc consts  --     0.1216                 0.1397                 0.2797
 IR Inten    --     3.0413                 3.2812                 5.8884

                    16                     17                     18
                     A                      A                      A
 Frequencies --   379.2628               410.2710               437.3676
 Red. masses --     2.6506                 4.8677                 2.7211
 Frc consts  --     0.2246                 0.4827                 0.3067
 IR Inten    --     4.6065                14.2648                 2.2092

                    19                     20                     21
                     A                      A                      A
 Frequencies --   447.2652               533.8037               577.8845
 Red. masses --     3.4870                 3.1943                 3.6929
 Frc consts  --     0.4110                 0.5363                 0.7266
 IR Inten    --     2.2889                20.9862                 0.6200

                    22                     23                     24
                     A                      A                      A
 Frequencies --   606.5715               633.2529               705.6774
 Red. masses --     3.7054                 4.3713                 6.1418
 Frc consts  --     0.8032                 1.0328                 1.8020
 IR Inten    --    10.9042                 6.0543                 9.3065

                    25                     26                     27
                     A                      A                      A
 Frequencies --   742.3329               787.2711               923.7828
 Red. masses --     3.3268                 3.0824                 2.3828
 Frc consts  --     1.0801                 1.1256                 1.1981
 IR Inten    --     2.6002                 3.3003                 1.4435

                    28                     29                     30
                     A                      A                      A
 Frequencies --   964.6776              1020.7307              1055.7744
 Red. masses --     2.7446                 1.5450                 1.8552
 Frc consts  --     1.5048                 0.9484                 1.2184
 IR Inten    --     0.9012                26.6137                11.4936

                    31                     32                     33
                     A                      A                      A
 Frequencies --  1061.4727              1087.8531              1099.4803
 Red. masses --     1.7433                 1.4118                 2.2893
 Frc consts  --     1.1573                 0.9844                 1.6305
 IR Inten    --     6.2205                 7.7158                17.3814

                    34                     35                     36
                     A                      A                      A
 Frequencies --  1117.5094              1139.0515              1150.5923
 Red. masses --     1.8191                 1.2229                 1.3418
 Frc consts  --     1.3385                 0.9348                 1.0466
 IR Inten    --   195.8879                 0.2992                 7.5482

                    37                     38                     39
                     A                      A                      A
 Frequencies --  1168.0297              1182.6074              1206.8378
 Red. masses --     1.7567                 1.3739                 2.4381
 Frc consts  --     1.4121                 1.1321                 2.0922
 IR Inten    --    15.2896                 4.2367                58.9183

                    40                     41                     42
                     A                      A                      A
 Frequencies --  1237.4993              1287.1277              1326.1121
 Red. masses --     4.4106                 4.8183                 1.4691
 Frc consts  --     3.9796                 4.7032                 1.5222
 IR Inten    --    19.0102                49.5126                 1.1804

                    43                     44                     45
                     A                      A                      A
 Frequencies --  1364.3794              1413.4284              1425.7564
 Red. masses --     2.2456                 1.3474                 1.9028
 Frc consts  --     2.4629                 1.5860                 2.2789
 IR Inten    --   181.7355                72.0070                34.4703

                    46                     47                     48
                     A                      A                      A
 Frequencies --  1438.4130              1448.4527              1459.6805
 Red. masses --     1.4716                 1.2622                 1.3432
 Frc consts  --     1.7939                 1.5603                 1.6862
 IR Inten    --    10.8023                44.6594                38.7897

                    49                     50                     51
                     A                      A                      A
 Frequencies --  1488.9757              1498.5348              1502.1546
 Red. masses --     1.1858                 1.1211                 1.1398
 Frc consts  --     1.5489                 1.4834                 1.5153
 IR Inten    --    17.7316                17.0988                 1.6142

                    52                     53                     54
                     A                      A                      A
 Frequencies --  1513.6846              1516.0003              1520.2377
 Red. masses --     1.0484                 1.0611                 1.0723
 Frc consts  --     1.4153                 1.4369                 1.4602
 IR Inten    --     2.2989                19.8319                 8.2715

                    55                     56                     57
                     A                      A                      A
 Frequencies --  1527.6804              1530.0348              1535.0820
 Red. masses --     1.0590                 1.0561                 1.0533
 Frc consts  --     1.4561                 1.4567                 1.4625
 IR Inten    --    10.7429                 4.2048                10.3596

                    58                     59                     60
                     A                      A                      A
 Frequencies --  1539.7302              1553.7415              1563.1839
 Red. masses --     1.0491                 1.0777                 1.1851
 Frc consts  --     1.4654                 1.5329                 1.7062
 IR Inten    --    12.5632                15.5978                31.9381

                    61                     62                     63
                     A                      A                      A
 Frequencies --  1750.7145              1782.7977              3025.7208
 Red. masses --    10.2889                 9.5636                 1.0416
 Frc consts  --    18.5801                17.9092                 5.6182
 IR Inten    --   263.2969               235.5062                30.9229

                    64                     65                     66
                     A                      A                      A
 Frequencies --  3033.7455              3035.1790              3044.8303
 Red. masses --     1.0421                 1.0500                 1.0765
 Frc consts  --     5.6509                 5.6989                 5.8803
 IR Inten    --    82.2036                23.5462                41.7887

                    67                     68                     69
                     A                      A                      A
 Frequencies --  3057.4371              3072.2773              3077.5481
 Red. masses --     1.0393                 1.1017                 1.0407
 Frc consts  --     5.7238                 6.1268                 5.8077
 IR Inten    --     8.3764                46.8314                33.3595

                    70                     71                     72
                     A                      A                      A
 Frequencies --  3079.9442              3099.5708              3119.8407
 Red. masses --     1.1035                 1.0986                 1.1010
 Frc consts  --     6.1675                 6.2186                 6.3141
 IR Inten    --    21.4186                29.4037                11.9093

                    73                     74                     75
                     A                      A                      A
 Frequencies --  3136.0177              3170.1284              3176.5215
 Red. masses --     1.1022                 1.0968                 1.0992
 Frc consts  --     6.3863                 6.4944                 6.5349
 IR Inten    --    35.7266                22.8650                 7.3390

                    76                     77                     78
                     A                      A                      A
 Frequencies --  3181.5369              3196.8140              3207.3495
 Red. masses --     1.0937                 1.0957                 1.0981
 Frc consts  --     6.5225                 6.5974                 6.6557
 IR Inten    --    14.7295                 1.4310                 2.4863

 - Thermochemistry -
 -------------------
 Temperature   298.150 Kelvin.  Pressure   1.00000 Atm.
 Atom     1 has atomic number  6 and mass  12.00000

 Molecular mass:   172.12118 amu.
 Principal axes and moments of inertia in atomic units:
                           1         2         3
     Eigenvalues --  1097.109153129.008643260.73579
           X            0.99978  -0.01562  -0.01368
           Y            0.01583   0.99976   0.01483
           Z            0.01345  -0.01504   0.99980
 This molecule is an asymmetric top.
 Rotational symmetry number  1.
 Warning -- assumption of classical behavior for rotation
           may cause significant error
 Rotational temperatures (Kelvin)      0.07895     0.02768     0.02656
 Rotational constants (GHZ):           1.64500     0.57678     0.55348
 Zero-point vibrational energy     640237.9 (Joules/Mol)
                                  153.02054 (Kcal/Mol)
 Warning -- explicit consideration of  22 degrees of freedom as
           vibrations may cause significant error
 Vibrational temperatures:     60.08    93.59   104.98   149.79   161.41
          (Kelvin)            202.51   213.14   227.34   261.11   317.89
                              324.82   362.32   392.42   430.78   528.12
                              545.67   590.29   629.27   643.51   768.02
                              831.45   872.72   911.11  1015.31  1068.05
                             1132.71  1329.12  1387.95  1468.60  1519.02
                             1527.22  1565.18  1581.90  1607.84  1638.84
                             1655.44  1680.53  1701.51  1736.37  1780.48
                             1851.89  1907.98  1963.04  2033.61  2051.34
                             2069.55  2084.00  2100.15  2142.30  2156.05
                             2161.26  2177.85  2181.18  2187.28  2197.99
                             2201.38  2208.64  2215.33  2235.48  2249.07
                             2518.88  2565.04  4353.33  4364.88  4366.94
                             4380.83  4398.96  4420.32  4427.90  4431.35
                             4459.59  4488.75  4512.02  4561.10  4570.30
                             4577.52  4599.50  4614.65

 Zero-point correction=                           0.243854 (Hartree/Particle)
 Thermal correction to Energy=                    0.258466
 Thermal correction to Enthalpy=                  0.259410
 Thermal correction to Gibbs Free Energy=         0.202476
 Sum of electronic and zero-point Energies=           -574.206082
 Sum of electronic and thermal Energies=              -574.191470
 Sum of electronic and thermal Enthalpies=            -574.190525
 Sum of electronic and thermal Free Energies=         -574.247459

                     E (Thermal)             CV                S
                      KCal/Mol        Cal/Mol-Kelvin    Cal/Mol-Kelvin
 Total                  162.190             51.632            119.828
 Electronic               0.000              0.000              0.000
 Translational            0.889              2.981             41.337
 Rotational               0.889              2.981             30.794
 Vibrational            160.413             45.670             47.698
 Vibration     1          0.594              1.980              5.174
 Vibration     2          0.597              1.971              4.298
 Vibration     3          0.599              1.967              4.072
 Vibration     4          0.605              1.946              3.376
 Vibration     5          0.607              1.939              3.231
 Vibration     6          0.615              1.913              2.794
 Vibration     7          0.618              1.905              2.696
 Vibration     8          0.621              1.894              2.574
 Vibration     9          0.630              1.865              2.313
 Vibration    10          0.648              1.809              1.951
 Vibration    11          0.650              1.802              1.912
 Vibration    12          0.664              1.760              1.718
 Vibration    13          0.676              1.724              1.579
 Vibration    14          0.692              1.675              1.420
 Vibration    15          0.740              1.540              1.092
 Vibration    16          0.749              1.514              1.042
 Vibration    17          0.774              1.448              0.926
 Vibration    18          0.798              1.389              0.835
 Vibration    19          0.806              1.367              0.804
 Vibration    20          0.889              1.175              0.579
 Vibration    21          0.934              1.079              0.489
 Vibration    22          0.965              1.018              0.438

 Normal termination of Gaussian 09 at Mon Feb 26 22:46:13 2018.
