 Gaussian 09, Revision C.01,
 Gaussian 09:  AM64L-G09RevC.01 23-Sep-2011

 ---------------------------------------------------------
 #B3LYP/6-31G* Integral=(Grid=UltraFine) freq Opt pop=none
 ---------------------------------------------------------

 99/9=1/99;
 -----------------------------
 Optimization for frag18-conf0
 -----------------------------
 Charge =  1 Multiplicity = 1

 SCF Done:  E(RB3LYP) =  -535.293782795     A.U. after   17 cycles
 SCF Done:  E(RB3LYP) =  -535.296644217     A.U. after   12 cycles
 SCF Done:  E(RB3LYP) =  -535.296899566     A.U. after   11 cycles
 SCF Done:  E(RB3LYP) =  -535.297062734     A.U. after   12 cycles
 SCF Done:  E(RB3LYP) =  -535.297421946     A.U. after   12 cycles
 SCF Done:  E(RB3LYP) =  -535.298371613     A.U. after   15 cycles
 SCF Done:  E(RB3LYP) =  -535.299410972     A.U. after   12 cycles
 SCF Done:  E(RB3LYP) =  -535.302395800     A.U. after   12 cycles
 SCF Done:  E(RB3LYP) =  -535.304566085     A.U. after   13 cycles
 SCF Done:  E(RB3LYP) =  -535.306260478     A.U. after   15 cycles
 SCF Done:  E(RB3LYP) =  -535.311908340     A.U. after   11 cycles
 SCF Done:  E(RB3LYP) =  -535.311909154     A.U. after   11 cycles
 SCF Done:  E(RB3LYP) =  -535.311909657     A.U. after    8 cycles
 SCF Done:  E(RB3LYP) =  -535.311910547     A.U. after   10 cycles
 SCF Done:  E(RB3LYP) =  -535.311911423     A.U. after    9 cycles
 SCF Done:  E(RB3LYP) =  -535.311914802     A.U. after   10 cycles
 SCF Done:  E(RB3LYP) =  -535.311916030     A.U. after   10 cycles
 SCF Done:  E(RB3LYP) =  -535.311916200     A.U. after    9 cycles
 SCF Done:  E(RB3LYP) =  -535.311916211     A.U. after    8 cycles
 Optimization completed.
    -- Stationary point found.
 Normal termination of Gaussian 09 at Fri Feb 16 19:30:07 2018.

 --------------------------------------------------------------------
 #N Geom=AllCheck Guess=TCheck SCRF=Check GenChk RB3LYP/6-31G(d) Freq
 --------------------------------------------------------------------

 Structure from the checkpoint file:  frag18-conf0.chk
 -----------------------------
 Optimization for frag18-conf0
 -----------------------------
 Charge =  1 Multiplicity = 1

                         Standard orientation:
 ---------------------------------------------------------------------
 Center     Atomic      Atomic             Coordinates (Angstroms)
 Number     Number       Type             X           Y           Z
 ---------------------------------------------------------------------
      1          6           0       -2.597633    1.395174    0.519850
      2          6           0       -1.334670    1.820456    0.094609
      3          6           0       -2.910147    0.051067    0.471613
      4          6           0       -0.777572   -0.450361   -0.404362
      5          6           0       -0.401148    0.893205   -0.374245
      6          6           0        2.569701   -0.344749    0.073879
      7          6           0        3.824312   -0.557428    0.891852
      8          6           0       -2.372084   -2.280764   -0.054595
      9          6           0        0.988468    1.291715   -0.859111
     10          7           0       -1.999669   -0.845209    0.013221
     11          7           0        2.056262    0.927843    0.062873
     12          8           0        2.028846   -1.247124   -0.563016
     13          1           0       -3.336067    2.098851    0.887228
     14          1           0       -1.083510    2.877027    0.127932
     15          1           0       -3.867028   -0.349073    0.785255
     16          1           0       -0.079525   -1.211858   -0.737115
     17          1           0        3.724699   -1.484062    1.462199
     18          1           0        4.671557   -0.683213    0.208625
     19          1           0        4.045446    0.268032    1.574349
     20          1           0       -3.064740   -2.433391   -0.885560
     21          1           0       -1.471088   -2.872537   -0.210190
     22          1           0       -2.843847   -2.571780    0.885158
     23          1           0        1.178670    0.810970   -1.824654
     24          1           0        1.019660    2.373443   -1.009646
     25          1           0        2.543491    1.666259    0.550945
 ---------------------------------------------------------------------

 SCF Done:  E(RB3LYP) =  -535.311916211     A.U. after    1 cycles

 Isotropic polarizability for W=    0.000000      103.32 Bohr**3.
 End of Minotr Frequency-dependent properties file   721 does not exist.

                     1                      2                      3
                     A                      A                      A
 Frequencies --    17.9621                38.1794                56.7261
 Red. masses --     3.7059                 1.0416                 1.1881
 Frc consts  --     0.0007                 0.0009                 0.0023
 IR Inten    --     2.5895                 0.0482                 2.6853

                     4                      5                      6
                     A                      A                      A
 Frequencies --    73.0171               112.6544               174.8457
 Red. masses --     2.6222                 5.1186                 4.6272
 Frc consts  --     0.0082                 0.0383                 0.0833
 IR Inten    --     4.7855                18.8649                 1.0378

                     7                      8                      9
                     A                      A                      A
 Frequencies --   198.0874               208.0111               293.5632
 Red. masses --     3.9960                 3.6939                 3.3502
 Frc consts  --     0.0924                 0.0942                 0.1701
 IR Inten    --     5.5928                 4.8164                10.1521

                    10                     11                     12
                     A                      A                      A
 Frequencies --   314.5677               411.8473               420.4504
 Red. masses --     2.4907                 2.3917                 1.3106
 Frc consts  --     0.1452                 0.2390                 0.1365
 IR Inten    --     1.8000                 7.0247                75.1089

                    13                     14                     15
                     A                      A                      A
 Frequencies --   429.4385               459.9119               510.1287
 Red. masses --     2.6509                 3.0556                 4.3685
 Frc consts  --     0.2880                 0.3808                 0.6698
 IR Inten    --     0.9345                14.2017                 5.2673

                    16                     17                     18
                     A                      A                      A
 Frequencies --   544.9819               595.2199               637.7976
 Red. masses --     5.1236                 4.0645                 2.7234
 Frc consts  --     0.8966                 0.8484                 0.6527
 IR Inten    --     3.4722                 4.5617                 0.5890

                    19                     20                     21
                     A                      A                      A
 Frequencies --   670.3779               704.7643               754.4519
 Red. masses --     4.0594                 2.3626                 4.1711
 Frc consts  --     1.0749                 0.6914                 1.3988
 IR Inten    --     9.9540                26.0470                 9.6710

                    22                     23                     24
                     A                      A                      A
 Frequencies --   829.8973               857.0562               930.4210
 Red. masses --     1.5301                 2.5892                 2.8083
 Frc consts  --     0.6209                 1.1205                 1.4323
 IR Inten    --    19.2309                 2.4338                 3.6283

                    25                     26                     27
                     A                      A                      A
 Frequencies --   966.3270               979.7697              1006.7118
 Red. masses --     1.6231                 1.3883                 1.6145
 Frc consts  --     0.8930                 0.7852                 0.9641
 IR Inten    --     4.9804                17.4962                 5.9306

                    28                     29                     30
                     A                      A                      A
 Frequencies --  1023.1708              1041.8471              1050.7744
 Red. masses --     1.3718                 2.7165                 4.8438
 Frc consts  --     0.8461                 1.7372                 3.1511
 IR Inten    --     0.5321                 6.8528                 1.9049

                    31                     32                     33
                     A                      A                      A
 Frequencies --  1071.3446              1105.2032              1114.3479
 Red. masses --     1.7338                 1.9167                 2.5928
 Frc consts  --     1.1725                 1.3794                 1.8970
 IR Inten    --    10.6013                 1.9480                 6.2966

                    34                     35                     36
                     A                      A                      A
 Frequencies --  1158.8423              1160.8678              1189.8087
 Red. masses --     1.3512                 1.5229                 1.6874
 Frc consts  --     1.0691                 1.2092                 1.4074
 IR Inten    --     4.7690                 2.8496                28.8725

                    37                     38                     39
                     A                      A                      A
 Frequencies --  1230.8928              1259.6004              1281.3586
 Red. masses --     1.2137                 3.5886                 1.7685
 Frc consts  --     1.0835                 3.3546                 1.7108
 IR Inten    --    13.6959                10.0039                83.6205

                    40                     41                     42
                     A                      A                      A
 Frequencies --  1309.6171              1360.0662              1383.7267
 Red. masses --     1.6224                 3.1138                 1.2866
 Frc consts  --     1.6395                 3.3936                 1.4514
 IR Inten    --    38.2678                24.3839                 6.5506

                    43                     44                     45
                     A                      A                      A
 Frequencies --  1410.3176              1430.8700              1470.1265
 Red. masses --     1.2935                 1.2360                 1.2458
 Frc consts  --     1.5159                 1.4910                 1.5864
 IR Inten    --    29.8788                19.4384                 4.0119

                    46                     47                     48
                     A                      A                      A
 Frequencies --  1493.4016              1494.5200              1498.4803
 Red. masses --     1.1545                 1.1583                 1.3109
 Frc consts  --     1.5171                 1.5243                 1.7342
 IR Inten    --     9.2483                19.5267                16.4567

                    49                     50                     51
                     A                      A                      A
 Frequencies --  1512.5724              1513.1539              1521.4826
 Red. masses --     1.0850                 1.0707                 1.5225
 Frc consts  --     1.4626                 1.4444                 2.0766
 IR Inten    --    15.2746                19.9432                24.1142

                    52                     53                     54
                     A                      A                      A
 Frequencies --  1543.1924              1553.9394              1640.4831
 Red. masses --     1.7327                 1.8550                 5.1055
 Frc consts  --     2.4311                 2.6392                 8.0953
 IR Inten    --    59.4467               158.9354                 0.8252

                    55                     56                     57
                     A                      A                      A
 Frequencies --  1678.7763              1761.6233              3071.1751
 Red. masses --     4.9350                 8.5193                 1.0367
 Frc consts  --     8.1944                15.5770                 5.7615
 IR Inten    --    20.9110               170.7365                 1.8436

                    58                     59                     60
                     A                      A                      A
 Frequencies --  3080.4110              3097.4656              3139.6136
 Red. masses --     1.0623                 1.0325                 1.1043
 Frc consts  --     5.9391                 5.8367                 6.4135
 IR Inten    --     9.5464                 1.2445                 3.2232

                    61                     62                     63
                     A                      A                      A
 Frequencies --  3140.4626              3162.8114              3182.3534
 Red. masses --     1.1013                 1.1034                 1.1076
 Frc consts  --     6.3996                 6.5034                 6.6087
 IR Inten    --     5.9274                 4.8661                 0.2731

                    64                     65                     66
                     A                      A                      A
 Frequencies --  3207.1263              3214.9074              3232.9544
 Red. masses --     1.1074                 1.0919                 1.0966
 Frc consts  --     6.7111                 6.6490                 6.7531
 IR Inten    --     1.0643                 0.1371                61.5848

                    67                     68                     69
                     A                      A                      A
 Frequencies --  3241.6985              3255.9641              3629.0345
 Red. masses --     1.0923                 1.0981                 1.0790
 Frc consts  --     6.7630                 6.8591                 8.3725
 IR Inten    --     1.5716                 3.0854                39.7209

 - Thermochemistry -
 -------------------
 Temperature   298.150 Kelvin.  Pressure   1.00000 Atm.
 Atom     1 has atomic number  6 and mass  12.00000

 Molecular mass:   165.10279 amu.
 Principal axes and moments of inertia in atomic units:
                           1         2         3
     Eigenvalues --  1081.921033154.411283906.25709
           X            0.99982   0.01762   0.00675
           Y           -0.01757   0.99982  -0.00688
           Z           -0.00687   0.00676   0.99995
 This molecule is an asymmetric top.
 Rotational symmetry number  1.
 Warning -- assumption of classical behavior for rotation
           may cause significant error
 Rotational temperatures (Kelvin)      0.08006     0.02746     0.02217
 Rotational constants (GHZ):           1.66809     0.57213     0.46201
 Zero-point vibrational energy     562948.0 (Joules/Mol)
                                  134.54780 (Kcal/Mol)
 Warning -- explicit consideration of  17 degrees of freedom as
           vibrations may cause significant error
 Vibrational temperatures:     25.84    54.93    81.62   105.06   162.08
          (Kelvin)            251.56   285.00   299.28   422.37   452.59
                              592.56   604.93   617.87   661.71   733.96
                              784.11   856.39   917.65   964.52  1014.00
                             1085.49  1194.04  1233.11  1338.67  1390.33
                             1409.67  1448.43  1472.11  1498.98  1511.83
                             1541.42  1590.14  1603.30  1667.31  1670.23
                             1711.87  1770.98  1812.28  1843.59  1884.24
                             1956.83  1990.87  2029.13  2058.70  2115.18
                             2148.67  2150.28  2155.98  2176.25  2177.09
                             2189.07  2220.31  2235.77  2360.29  2415.38
                             2534.58  4418.73  4432.02  4456.56  4517.20
                             4518.42  4550.57  4578.69  4614.33  4625.53
                             4651.49  4664.08  4684.60  5221.36

 Zero-point correction=                           0.214416 (Hartree/Particle)
 Thermal correction to Energy=                    0.226699
 Thermal correction to Enthalpy=                  0.227643
 Thermal correction to Gibbs Free Energy=         0.173645
 Sum of electronic and zero-point Energies=           -535.097501
 Sum of electronic and thermal Energies=              -535.085217
 Sum of electronic and thermal Enthalpies=            -535.084273
 Sum of electronic and thermal Free Energies=         -535.138272

                     E (Thermal)             CV                S
                      KCal/Mol        Cal/Mol-Kelvin    Cal/Mol-Kelvin
 Total                  142.256             44.308            113.649
 Electronic               0.000              0.000              0.000
 Translational            0.889              2.981             41.213
 Rotational               0.889              2.981             30.967
 Vibrational            140.478             38.346             41.469
 Vibration     1          0.593              1.986              6.848
 Vibration     2          0.594              1.982              5.351
 Vibration     3          0.596              1.975              4.568
 Vibration     4          0.599              1.967              4.070
 Vibration     5          0.607              1.939              3.223
 Vibration     6          0.627              1.873              2.383
 Vibration     7          0.637              1.843              2.151
 Vibration     8          0.641              1.828              2.061
 Vibration     9          0.688              1.686              1.453
 Vibration    10          0.702              1.646              1.338
 Vibration    11          0.776              1.445              0.920
 Vibration    12          0.783              1.426              0.890
 Vibration    13          0.791              1.406              0.860
 Vibration    14          0.818              1.339              0.766
 Vibration    15          0.865              1.228              0.633
 Vibration    16          0.900              1.151              0.555
 Vibration    17          0.953              1.042              0.458

 Optimization completed.
    -- Stationary point found.
 Normal termination of Gaussian 09 at Fri Feb 16 19:47:54 2018.
