 Gaussian 09, Revision C.01,
 Gaussian 09:  AM64L-G09RevC.01 23-Sep-2011

 ----------------------------------------------------------------------
 #HF/6-31G* Geom=AllCheck Guess=Read Pop=(MK,ReadRadii) Integral=(Grid=
 UltraFine) iop(6/33=2)
 ----------------------------------------------------------------------

 Structure from the checkpoint file:  frag18-conf0.chk
 -----------------------------
 Optimization for frag18-conf0
 -----------------------------
 Charge =  1 Multiplicity = 1

                         Standard orientation:
 ---------------------------------------------------------------------
 Center     Atomic      Atomic             Coordinates (Angstroms)
 Number     Number       Type             X           Y           Z
 ---------------------------------------------------------------------
      1          6           0       -2.597633    1.395174    0.519850
      2          6           0       -1.334670    1.820456    0.094609
      3          6           0       -2.910147    0.051067    0.471613
      4          6           0       -0.777572   -0.450361   -0.404362
      5          6           0       -0.401148    0.893205   -0.374245
      6          6           0        2.569701   -0.344749    0.073879
      7          6           0        3.824312   -0.557428    0.891852
      8          6           0       -2.372084   -2.280764   -0.054595
      9          6           0        0.988468    1.291715   -0.859111
     10          7           0       -1.999669   -0.845209    0.013221
     11          7           0        2.056262    0.927843    0.062873
     12          8           0        2.028846   -1.247124   -0.563016
     13          1           0       -3.336067    2.098851    0.887228
     14          1           0       -1.083510    2.877027    0.127932
     15          1           0       -3.867028   -0.349073    0.785255
     16          1           0       -0.079525   -1.211858   -0.737115
     17          1           0        3.724699   -1.484062    1.462199
     18          1           0        4.671557   -0.683213    0.208625
     19          1           0        4.045446    0.268032    1.574349
     20          1           0       -3.064740   -2.433391   -0.885560
     21          1           0       -1.471088   -2.872537   -0.210190
     22          1           0       -2.843847   -2.571780    0.885158
     23          1           0        1.178670    0.810970   -1.824654
     24          1           0        1.019660    2.373443   -1.009646
     25          1           0        2.543491    1.666259    0.550945
 ---------------------------------------------------------------------

 SCF Done:  E(RHF) =  -531.963803320     A.U. after   14 cycles

 The electronic state is 1-A.
 Alpha  occ. eigenvalues --  -20.64851 -15.84528 -15.71938 -11.47836 -11.47814
 Alpha  occ. eigenvalues --  -11.47118 -11.44063 -11.43682 -11.42299 -11.42134
 Alpha  occ. eigenvalues --  -11.42024 -11.34238  -1.50681  -1.50018  -1.35893
 Alpha  occ. eigenvalues --   -1.29093  -1.23666  -1.14956  -1.13434  -1.08659
 Alpha  occ. eigenvalues --   -1.03886  -1.01085  -0.91472  -0.89663  -0.87095
 Alpha  occ. eigenvalues --   -0.83029  -0.81448  -0.80744  -0.79497  -0.78519
 Alpha  occ. eigenvalues --   -0.77377  -0.73340  -0.72513  -0.70981  -0.70513
 Alpha  occ. eigenvalues --   -0.69582  -0.69083  -0.67717  -0.65912  -0.62100
 Alpha  occ. eigenvalues --   -0.56676  -0.54601  -0.52386  -0.51751
 Alpha virt. eigenvalues --   -0.08664  -0.04299   0.06478   0.08144   0.09242
 Alpha virt. eigenvalues --    0.11106   0.13348   0.13624   0.13953   0.15184
 Alpha virt. eigenvalues --    0.16396   0.17056   0.18722   0.18911   0.20371

 Mulliken atomic charges:
              1
     1  C   -0.272801
     2  C   -0.104519
     3  C    0.152073
     4  C    0.161842
     5  C   -0.065749
     6  C    0.766317
     7  C   -0.583139
     8  C   -0.331602
     9  C   -0.162649
    10  N   -0.599025
    11  N   -0.792810
    12  O   -0.648934
    13  H    0.286217
    14  H    0.278453
    15  H    0.293654
    16  H    0.361326
    17  H    0.228717
    18  H    0.234319
    19  H    0.188413
    20  H    0.246236
    21  H    0.248481
    22  H    0.238291
    23  H    0.245511
    24  H    0.221604
    25  H    0.409772
 Sum of Mulliken atomic charges =   1.00000

 Dipole moment (field-independent basis, Debye):
    X=             -5.2650    Y=              2.1044    Z=              1.6450  Tot=              5.9038
 Quadrupole moment (field-independent basis, Debye-Ang):
   XX=            -29.0292   YY=            -50.9543   ZZ=            -68.4303
   XY=             10.3749   XZ=              0.9406   YZ=             -0.6985

 Normal termination of Gaussian 09 at Sat Feb 17 20:58:35 2018.
