 Gaussian 09, Revision C.01,
 Gaussian 09:  AM64L-G09RevC.01 23-Sep-2011

 ---------------------------------------------------------
 #B3LYP/6-31G* Integral=(Grid=UltraFine) freq Opt pop=none
 ---------------------------------------------------------

 99/9=1/99;
 -----------------------------
 Optimization for frag14-conf2
 -----------------------------
 Charge =  1 Multiplicity = 1

 SCF Done:  E(RB3LYP) =  -617.537902256     A.U. after   14 cycles
 SCF Done:  E(RB3LYP) =  -617.545350851     A.U. after   12 cycles
 SCF Done:  E(RB3LYP) =  -617.546827792     A.U. after   11 cycles
 SCF Done:  E(RB3LYP) =  -617.547264327     A.U. after   12 cycles
 SCF Done:  E(RB3LYP) =  -617.548709080     A.U. after   12 cycles
 SCF Done:  E(RB3LYP) =  -617.549600882     A.U. after   11 cycles
 SCF Done:  E(RB3LYP) =  -617.549865801     A.U. after   12 cycles
 SCF Done:  E(RB3LYP) =  -617.550198369     A.U. after   11 cycles
 SCF Done:  E(RB3LYP) =  -617.550269275     A.U. after   10 cycles
 SCF Done:  E(RB3LYP) =  -617.550457698     A.U. after   10 cycles
 SCF Done:  E(RB3LYP) =  -617.550467958     A.U. after   10 cycles
 SCF Done:  E(RB3LYP) =  -617.550471518     A.U. after    8 cycles
 SCF Done:  E(RB3LYP) =  -617.550472737     A.U. after    7 cycles
 SCF Done:  E(RB3LYP) =  -617.550474187     A.U. after    8 cycles
 SCF Done:  E(RB3LYP) =  -617.550475185     A.U. after    7 cycles
 SCF Done:  E(RB3LYP) =  -617.550476380     A.U. after    8 cycles
 SCF Done:  E(RB3LYP) =  -617.550476603     A.U. after    7 cycles
 Optimization completed.
    -- Stationary point found.
 Normal termination of Gaussian 09 at Fri Feb 16 18:57:10 2018.

 --------------------------------------------------------------------
 #N Geom=AllCheck Guess=TCheck SCRF=Check GenChk RB3LYP/6-31G(d) Freq
 --------------------------------------------------------------------

 Structure from the checkpoint file:  frag14-conf2.chk
 -----------------------------
 Optimization for frag14-conf2
 -----------------------------
 Charge =  1 Multiplicity = 1

                         Standard orientation:
 ---------------------------------------------------------------------
 Center     Atomic      Atomic             Coordinates (Angstroms)
 Number     Number       Type             X           Y           Z
 ---------------------------------------------------------------------
      1          6           0        2.380150    0.496434   -0.092650
      2          6           0       -4.117561   -0.406599   -0.581118
      3          6           0       -3.793923    0.857696    0.228319
      4          6           0       -3.305543   -1.614141   -0.090632
      5          6           0       -2.282149    1.146348    0.224853
      6          6           0       -1.795594   -1.317720   -0.071792
      7          6           0       -1.477834   -0.057652    0.758066
      8          6           0        4.443744   -0.729439    0.235773
      9          6           0        2.395547   -1.984885   -0.354172
     10          6           0        0.039682    0.191556    0.926525
     11          6           0        0.841595    0.557052   -0.339354
     12          7           0        3.007892   -0.686242   -0.074828
     13          7           0        0.636427    2.022368   -0.683342
     14          8           0        2.938846    1.588072    0.108603
     15          1           0       -5.189489   -0.624778   -0.520731
     16          1           0       -3.897585   -0.224387   -1.643455
     17          1           0       -4.337705    1.720683   -0.172062
     18          1           0       -4.128541    0.729940    1.266704
     19          1           0       -3.627036   -1.883128    0.925051
     20          1           0       -3.502723   -2.488444   -0.721012
     21          1           0       -1.988900    1.363380   -0.816718
     22          1           0       -2.077233    2.046064    0.827975
     23          1           0       -1.250651   -2.180582    0.334175
     24          1           0       -1.449659   -1.181898   -1.109581
     25          1           0       -1.836385   -0.247205    1.780416
     26          1           0        4.608940   -1.372502    1.106202
     27          1           0        4.795365    0.277724    0.448954
     28          1           0        4.991453   -1.139488   -0.619029
     29          1           0        2.935998   -2.472354   -1.172383
     30          1           0        1.349330   -1.891004   -0.641302
     31          1           0        2.457548   -2.626606    0.531759
     32          1           0        0.219876    0.978961    1.672702
     33          1           0        0.491178   -0.713519    1.347390
     34          1           0        0.529844   -0.028997   -1.204571
     35          1           0       -0.202835    2.414577   -0.247579
     36          1           0        0.589940    2.195737   -1.691764
     37          1           0        1.529592    2.458468   -0.305682
 ---------------------------------------------------------------------

 SCF Done:  E(RB3LYP) =  -617.550476603     A.U. after    1 cycles

 Isotropic polarizability for W=    0.000000      130.13 Bohr**3.
 End of Minotr Frequency-dependent properties file   721 does not exist.

                     1                      2                      3
                     A                      A                      A
 Frequencies --    30.8645                54.1217                74.4048
 Red. masses --     3.2691                 3.0989                 2.7501
 Frc consts  --     0.0018                 0.0053                 0.0090
 IR Inten    --     1.9348                 5.1369                 1.6868

                     4                      5                      6
                     A                      A                      A
 Frequencies --    90.4768                94.3020               116.9840
 Red. masses --     1.7302                 1.3667                 2.0754
 Frc consts  --     0.0083                 0.0072                 0.0167
 IR Inten    --     4.5336                 0.3088                 1.4707

                     7                      8                      9
                     A                      A                      A
 Frequencies --   124.1588               182.5068               201.0454
 Red. masses --     1.8274                 3.3482                 3.0105
 Frc consts  --     0.0166                 0.0657                 0.0717
 IR Inten    --     2.9448                 4.2799                 8.6296

                    10                     11                     12
                     A                      A                      A
 Frequencies --   240.5511               250.7997               278.7990
 Red. masses --     2.0499                 2.4818                 2.2212
 Frc consts  --     0.0699                 0.0920                 0.1017
 IR Inten    --     0.8643                 2.8377                12.7435

                    13                     14                     15
                     A                      A                      A
 Frequencies --   289.6970               304.2596               336.7989
 Red. masses --     2.2217                 1.3571                 1.8444
 Frc consts  --     0.1099                 0.0740                 0.1233
 IR Inten    --     2.2285                 3.1019                 1.2817

                    16                     17                     18
                     A                      A                      A
 Frequencies --   374.1590               409.3666               419.3184
 Red. masses --     2.5740                 2.5451                 2.3702
 Frc consts  --     0.2123                 0.2513                 0.2455
 IR Inten    --     6.6190                 4.7898                 0.3526

                    19                     20                     21
                     A                      A                      A
 Frequencies --   439.5084               459.9658               487.0692
 Red. masses --     3.2197                 2.8480                 2.1225
 Frc consts  --     0.3664                 0.3550                 0.2967
 IR Inten    --    83.1998                19.8783                20.9831

                    22                     23                     24
                     A                      A                      A
 Frequencies --   522.8571               591.1086               638.7522
 Red. masses --     2.2225                 3.1642                 4.6098
 Frc consts  --     0.3580                 0.6514                 1.1081
 IR Inten    --    11.6871                 3.2641                12.6528

                    25                     26                     27
                     A                      A                      A
 Frequencies --   702.5344               781.8195               805.4257
 Red. masses --     5.7781                 2.5856                 1.6316
 Frc consts  --     1.6802                 0.9312                 0.6236
 IR Inten    --     9.5337                 2.5490                 1.8745

                    28                     29                     30
                     A                      A                      A
 Frequencies --   818.1997               834.1367               852.3047
 Red. masses --     2.8947                 2.3151                 2.6895
 Frc consts  --     1.1418                 0.9491                 1.1511
 IR Inten    --    19.1141                 4.4622                 0.3213

                    31                     32                     33
                     A                      A                      A
 Frequencies --   886.0060               910.4737               932.9809
 Red. masses --     1.8873                 1.7286                 1.4840
 Frc consts  --     0.8729                 0.8442                 0.7611
 IR Inten    --     1.2624                 0.3163                 6.8338

                    34                     35                     36
                     A                      A                      A
 Frequencies --   952.1819               959.2173               986.4018
 Red. masses --     1.9353                 2.8148                 2.4966
 Frc consts  --     1.0338                 1.5259                 1.4312
 IR Inten    --     1.9875                 3.6707                 6.0865

                    37                     38                     39
                     A                      A                      A
 Frequencies --  1003.1806              1043.5706              1060.0613
 Red. masses --     2.5423                 1.9185                 1.4534
 Frc consts  --     1.5075                 1.2310                 0.9623
 IR Inten    --    23.1659                 1.6747                15.7140

                    40                     41                     42
                     A                      A                      A
 Frequencies --  1083.3253              1086.4379              1096.4653
 Red. masses --     1.4820                 1.6972                 2.1686
 Frc consts  --     1.0247                 1.1803                 1.5361
 IR Inten    --    12.3457                 5.8571                11.7813

                    43                     44                     45
                     A                      A                      A
 Frequencies --  1103.3503              1118.2240              1131.4476
 Red. masses --     1.2089                 1.4585                 1.2253
 Frc consts  --     0.8671                 1.0745                 0.9242
 IR Inten    --     8.9297                88.1483                 0.7568

                    46                     47                     48
                     A                      A                      A
 Frequencies --  1150.6015              1174.4963              1181.2726
 Red. masses --     1.3509                 2.0958                 1.8270
 Frc consts  --     1.0537                 1.7034                 1.5021
 IR Inten    --    23.7123                 3.6206                50.7341

                    49                     50                     51
                     A                      A                      A
 Frequencies --  1184.5857              1224.5939              1256.8796
 Red. masses --     1.4173                 1.5140                 1.8175
 Frc consts  --     1.1718                 1.3377                 1.6917
 IR Inten    --     1.9653                 1.3522                 7.7859

                    52                     53                     54
                     A                      A                      A
 Frequencies --  1271.7799              1293.0211              1304.8122
 Red. masses --     2.3569                 1.4924                 1.2689
 Frc consts  --     2.2461                 1.4701                 1.2729
 IR Inten    --    50.4605                 1.2236                 0.9467

                    55                     56                     57
                     A                      A                      A
 Frequencies --  1306.6407              1311.6596              1350.1611
 Red. masses --     1.2546                 1.2331                 1.2913
 Frc consts  --     1.2621                 1.2500                 1.3869
 IR Inten    --     8.3548                 5.7648                 1.3154

                    58                     59                     60
                     A                      A                      A
 Frequencies --  1354.7992              1370.8453              1385.8497
 Red. masses --     1.2977                 1.3037                 1.3606
 Frc consts  --     1.4034                 1.4434                 1.5396
 IR Inten    --     2.6760                40.9611                 1.3721

                    61                     62                     63
                     A                      A                      A
 Frequencies --  1396.1364              1400.2553              1404.5288
 Red. masses --     1.3977                 1.3952                 1.4645
 Frc consts  --     1.6051                 1.6118                 1.7022
 IR Inten    --    16.2692                13.8271                 0.1381

                    64                     65                     66
                     A                      A                      A
 Frequencies --  1405.4455              1424.6189              1444.2826
 Red. masses --     1.4309                 1.4266                 1.2517
 Frc consts  --     1.6653                 1.7059                 1.5384
 IR Inten    --     5.3852                 6.6089               429.2547

                    67                     68                     69
                     A                      A                      A
 Frequencies --  1464.0171              1476.7138              1501.7814
 Red. masses --     1.1503                 2.0608                 1.0645
 Frc consts  --     1.4526                 2.6477                 1.4146
 IR Inten    --     8.0837                31.3125                10.2120

                    70                     71                     72
                     A                      A                      A
 Frequencies --  1504.6402              1512.9618              1515.3305
 Red. masses --     1.1645                 1.0880                 1.0652
 Frc consts  --     1.5534                 1.4673                 1.4411
 IR Inten    --    22.1116                 3.0847                 6.4829

                    73                     74                     75
                     A                      A                      A
 Frequencies --  1516.2658              1518.5960              1524.7057
 Red. masses --     1.0872                 1.0916                 1.0865
 Frc consts  --     1.4727                 1.4832                 1.4882
 IR Inten    --    10.2565                 4.2257                 5.8240

                    76                     77                     78
                     A                      A                      A
 Frequencies --  1527.6105              1529.5142              1537.5473
 Red. masses --     1.0728                 1.0721                 1.0979
 Frc consts  --     1.4750                 1.4777                 1.5292
 IR Inten    --    17.1738                16.3489                 1.9249

                    79                     80                     81
                     A                      A                      A
 Frequencies --  1565.3044              1658.0885              1695.1702
 Red. masses --     1.4024                 1.0826                 1.0449
 Frc consts  --     2.0245                 1.7536                 1.7692
 IR Inten    --    54.7694                18.2417                28.8357

                    82                     83                     84
                     A                      A                      A
 Frequencies --  1754.6631              2901.4933              2974.5865
 Red. masses --     5.1958                 1.0697                 1.0588
 Frc consts  --     9.4252                 5.3059                 5.5199
 IR Inten    --   214.3599               411.7304                40.5071

                    85                     86                     87
                     A                      A                      A
 Frequencies --  2996.6664              3011.4487              3027.1025
 Red. masses --     1.0681                 1.0965                 1.0726
 Frc consts  --     5.6513                 5.8588                 5.7908
 IR Inten    --    37.9893                27.2310                20.0251

                    88                     89                     90
                     A                      A                      A
 Frequencies --  3029.5113              3041.6979              3043.1299
 Red. masses --     1.0811                 1.0678                 1.0710
 Frc consts  --     5.8460                 5.8206                 5.8437
 IR Inten    --    10.7152                10.6905                14.1773

                    91                     92                     93
                     A                      A                      A
 Frequencies --  3050.6090              3063.1900              3065.0711
 Red. masses --     1.0677                 1.0897                 1.0394
 Frc consts  --     5.8544                 6.0243                 5.7532
 IR Inten    --    46.4384                44.1019                14.9047

                    94                     95                     96
                     A                      A                      A
 Frequencies --  3071.2616              3095.3768              3096.2664
 Red. masses --     1.0371                 1.0995                 1.0928
 Frc consts  --     5.7638                 6.2071                 6.1727
 IR Inten    --    23.3217                23.9570                32.1825

                    97                     98                     99
                     A                      A                      A
 Frequencies --  3099.4020              3100.1123              3123.4621
 Red. masses --     1.1026                 1.0944                 1.1056
 Frc consts  --     6.2408                 6.1970                 6.3552
 IR Inten    --    34.5511                12.0841                 8.5805

                   100                    101                    102
                     A                      A                      A
 Frequencies --  3132.7170              3145.5909              3191.8692
 Red. masses --     1.1064                 1.0875                 1.0983
 Frc consts  --     6.3975                 6.3401                 6.5925
 IR Inten    --     8.5069                 6.5870                11.5288

                   103                    104                    105
                     A                      A                      A
 Frequencies --  3213.1768              3457.2425              3523.5459
 Red. masses --     1.1004                 1.0543                 1.0959
 Frc consts  --     6.6938                 7.4247                 8.0161
 IR Inten    --     0.3926               101.4142               106.9065

 - Thermochemistry -
 -------------------
 Temperature   298.150 Kelvin.  Pressure   1.00000 Atm.
 Atom     1 has atomic number  6 and mass  12.00000

 Molecular mass:   199.18104 amu.
 Principal axes and moments of inertia in atomic units:
                           1         2         3
     Eigenvalues --  1306.817085551.914776443.76974
           X            0.99992  -0.01266   0.00124
           Y            0.01266   0.99992  -0.00090
           Z           -0.00123   0.00092   1.00000
 This molecule is an asymmetric top.
 Rotational symmetry number  1.
 Warning -- assumption of classical behavior for rotation
           may cause significant error
 Rotational temperatures (Kelvin)      0.06628     0.01560     0.01344
 Rotational constants (GHZ):           1.38102     0.32507     0.28008
 Zero-point vibrational energy     903266.3 (Joules/Mol)
                                  215.88582 (Kcal/Mol)
 Warning -- explicit consideration of  23 degrees of freedom as
           vibrations may cause significant error
 Vibrational temperatures:     44.41    77.87   107.05   130.18   135.68
          (Kelvin)            168.31   178.64   262.59   289.26   346.10
                              360.84   401.13   416.81   437.76   484.58
                              538.33   588.99   603.30   632.35   661.79
                              700.78   752.27   850.47   919.02  1010.79
                             1124.86  1158.83  1177.21  1200.14  1226.27
                             1274.76  1309.97  1342.35  1369.98  1380.10
                             1419.21  1443.35  1501.46  1525.19  1558.66
                             1563.14  1577.57  1587.47  1608.87  1627.90
                             1655.46  1689.84  1699.59  1704.35  1761.92
                             1808.37  1829.81  1860.37  1877.33  1879.96
                             1887.18  1942.58  1949.25  1972.34  1993.93
                             2008.73  2014.65  2020.80  2022.12  2049.71
                             2078.00  2106.39  2124.66  2160.73  2164.84
                             2176.81  2180.22  2181.57  2184.92  2193.71
                             2197.89  2200.63  2212.18  2252.12  2385.62
                             2438.97  2524.57  4174.60  4279.76  4311.53
                             4332.80  4355.32  4358.79  4376.32  4378.38
                             4389.14  4407.24  4409.95  4418.85  4453.55
                             4454.83  4459.34  4460.36  4493.96  4507.28
                             4525.80  4592.38  4623.04  4974.19  5069.59

 Zero-point correction=                           0.344036 (Hartree/Particle)
 Thermal correction to Energy=                    0.359562
 Thermal correction to Enthalpy=                  0.360506
 Thermal correction to Gibbs Free Energy=         0.300914
 Sum of electronic and zero-point Energies=           -617.206441
 Sum of electronic and thermal Energies=              -617.190915
 Sum of electronic and thermal Enthalpies=            -617.189970
 Sum of electronic and thermal Free Energies=         -617.249562

                     E (Thermal)             CV                S
                      KCal/Mol        Cal/Mol-Kelvin    Cal/Mol-Kelvin
 Total                  225.629             58.639            125.422
 Electronic               0.000              0.000              0.000
 Translational            0.889              2.981             41.772
 Rotational               0.889              2.981             32.214
 Vibrational            223.851             52.678             51.436
 Vibration     1          0.594              1.984              5.773
 Vibration     2          0.596              1.976              4.661
 Vibration     3          0.599              1.966              4.033
 Vibration     4          0.602              1.956              3.650
 Vibration     5          0.603              1.953              3.569
 Vibration     6          0.608              1.935              3.150
 Vibration     7          0.610              1.929              3.035
 Vibration     8          0.630              1.864              2.303
 Vibration     9          0.638              1.838              2.124
 Vibration    10          0.658              1.778              1.799
 Vibration    11          0.663              1.761              1.725
 Vibration    12          0.679              1.713              1.541
 Vibration    13          0.686              1.693              1.476
 Vibration    14          0.695              1.666              1.393
 Vibration    15          0.718              1.602              1.227
 Vibration    16          0.745              1.525              1.063
 Vibration    17          0.774              1.450              0.929
 Vibration    18          0.782              1.428              0.894
 Vibration    19          0.800              1.384              0.828
 Vibration    20          0.818              1.339              0.766
 Vibration    21          0.843              1.279              0.691
 Vibration    22          0.878              1.199              0.603
 Vibration    23          0.949              1.051              0.465

 Normal termination of Gaussian 09 at Fri Feb 16 19:34:26 2018.
