 Gaussian 09, Revision C.01,
 Gaussian 09:  AM64L-G09RevC.01 23-Sep-2011

 ----------------------------------------------------------------------
 #HF/6-31G* Geom=AllCheck Guess=Read Pop=(MK,ReadRadii) Integral=(Grid=
 UltraFine) iop(6/33=2)
 ----------------------------------------------------------------------

 Structure from the checkpoint file:  frag14-conf2.chk
 -----------------------------
 Optimization for frag14-conf2
 -----------------------------
 Charge =  1 Multiplicity = 1

                         Standard orientation:
 ---------------------------------------------------------------------
 Center     Atomic      Atomic             Coordinates (Angstroms)
 Number     Number       Type             X           Y           Z
 ---------------------------------------------------------------------
      1          6           0        2.380150    0.496434   -0.092650
      2          6           0       -4.117561   -0.406599   -0.581118
      3          6           0       -3.793923    0.857696    0.228319
      4          6           0       -3.305543   -1.614141   -0.090632
      5          6           0       -2.282149    1.146348    0.224853
      6          6           0       -1.795594   -1.317720   -0.071792
      7          6           0       -1.477834   -0.057652    0.758066
      8          6           0        4.443744   -0.729439    0.235773
      9          6           0        2.395547   -1.984885   -0.354172
     10          6           0        0.039682    0.191556    0.926525
     11          6           0        0.841595    0.557052   -0.339354
     12          7           0        3.007892   -0.686242   -0.074828
     13          7           0        0.636427    2.022368   -0.683342
     14          8           0        2.938846    1.588072    0.108603
     15          1           0       -5.189489   -0.624778   -0.520731
     16          1           0       -3.897585   -0.224387   -1.643455
     17          1           0       -4.337705    1.720683   -0.172062
     18          1           0       -4.128541    0.729940    1.266704
     19          1           0       -3.627036   -1.883128    0.925051
     20          1           0       -3.502723   -2.488444   -0.721012
     21          1           0       -1.988900    1.363380   -0.816718
     22          1           0       -2.077233    2.046064    0.827975
     23          1           0       -1.250651   -2.180582    0.334175
     24          1           0       -1.449659   -1.181898   -1.109581
     25          1           0       -1.836385   -0.247205    1.780416
     26          1           0        4.608940   -1.372502    1.106202
     27          1           0        4.795365    0.277724    0.448954
     28          1           0        4.991453   -1.139488   -0.619029
     29          1           0        2.935998   -2.472354   -1.172383
     30          1           0        1.349330   -1.891004   -0.641302
     31          1           0        2.457548   -2.626606    0.531759
     32          1           0        0.219876    0.978961    1.672702
     33          1           0        0.491178   -0.713519    1.347390
     34          1           0        0.529844   -0.028997   -1.204571
     35          1           0       -0.202835    2.414577   -0.247579
     36          1           0        0.589940    2.195737   -1.691764
     37          1           0        1.529592    2.458468   -0.305682
 ---------------------------------------------------------------------

 SCF Done:  E(RHF) =  -613.506861096     A.U. after   13 cycles

 The electronic state is 1-A.
 Alpha  occ. eigenvalues --  -20.69112 -15.84922 -15.75184 -11.52209 -11.47620
 Alpha  occ. eigenvalues --  -11.40665 -11.39559 -11.38113 -11.37003 -11.35978
 Alpha  occ. eigenvalues --  -11.34718 -11.33286 -11.32767 -11.32347  -1.54979
 Alpha  occ. eigenvalues --   -1.46096  -1.39880  -1.25749  -1.20507  -1.13637
 Alpha  occ. eigenvalues --   -1.12446  -1.10971  -1.08058  -1.03422  -0.96041
 Alpha  occ. eigenvalues --   -0.94649  -0.94016  -0.91159  -0.88956  -0.87161
 Alpha  occ. eigenvalues --   -0.83164  -0.82303  -0.79469  -0.77590  -0.76773
 Alpha  occ. eigenvalues --   -0.73818  -0.73460  -0.72492  -0.71549  -0.70297
 Alpha  occ. eigenvalues --   -0.69740  -0.68802  -0.68664  -0.66824  -0.66479
 Alpha  occ. eigenvalues --   -0.64806  -0.64193  -0.62050  -0.60336  -0.60010
 Alpha  occ. eigenvalues --   -0.58845  -0.56753  -0.54954  -0.54656  -0.52154
 Alpha virt. eigenvalues --    0.02146   0.02628   0.07660   0.08191   0.10852
 Alpha virt. eigenvalues --    0.11455   0.11989   0.13245   0.13689   0.15683
 Alpha virt. eigenvalues --    0.15964   0.16782   0.17677   0.18713   0.18966

 Mulliken atomic charges:
              1
     1  C    0.831312
     2  C   -0.321492
     3  C   -0.312533
     4  C   -0.318739
     5  C   -0.358629
     6  C   -0.324923
     7  C   -0.158061
     8  C   -0.316915
     9  C   -0.313051
    10  C   -0.364930
    11  C   -0.139233
    12  N   -0.657720
    13  N   -0.908669
    14  O   -0.674019
    15  H    0.197880
    16  H    0.158345
    17  H    0.190730
    18  H    0.180248
    19  H    0.175840
    20  H    0.191850
    21  H    0.126139
    22  H    0.166650
    23  H    0.177363
    24  H    0.140283
    25  H    0.203730
    26  H    0.203059
    27  H    0.255341
    28  H    0.203283
    29  H    0.220658
    30  H    0.187831
    31  H    0.215296
    32  H    0.210413
    33  H    0.227691
    34  H    0.259689
    35  H    0.472055
    36  H    0.455364
    37  H    0.517867
 Sum of Mulliken atomic charges =   1.00000

 Dipole moment (field-independent basis, Debye):
    X=              1.7940    Y=              1.5932    Z=             -2.2245  Tot=              3.2718
 Quadrupole moment (field-independent basis, Debye-Ang):
   XX=            -65.6534   YY=            -69.8121   ZZ=            -80.8979
   XY=             -9.8831   XZ=             -2.9096   YZ=             -5.1669

 Normal termination of Gaussian 09 at Sat Feb 17 20:58:15 2018.
