 Gaussian 09, Revision C.01,
 Gaussian 09:  AM64L-G09RevC.01 23-Sep-2011

 ---------------------------------------------------------
 #B3LYP/6-31G* Integral=(Grid=UltraFine) freq Opt pop=none
 ---------------------------------------------------------

 99/9=1/99;
 -----------------------------
 Optimization for frag31-conf2
 -----------------------------
 Charge =  1 Multiplicity = 1

 SCF Done:  E(RB3LYP) =  -535.304721995     A.U. after   16 cycles
 SCF Done:  E(RB3LYP) =  -535.303370442     A.U. after   15 cycles
 SCF Done:  E(RB3LYP) =  -535.308547839     A.U. after   13 cycles
 SCF Done:  E(RB3LYP) =  -535.309228165     A.U. after   14 cycles
 SCF Done:  E(RB3LYP) =  -535.310040580     A.U. after   12 cycles
 SCF Done:  E(RB3LYP) =  -535.310418842     A.U. after   13 cycles
 SCF Done:  E(RB3LYP) =  -535.310552131     A.U. after   13 cycles
 SCF Done:  E(RB3LYP) =  -535.310710832     A.U. after   12 cycles
 SCF Done:  E(RB3LYP) =  -535.310800383     A.U. after   11 cycles
 SCF Done:  E(RB3LYP) =  -535.310859461     A.U. after   11 cycles
 SCF Done:  E(RB3LYP) =  -535.310876645     A.U. after   10 cycles
 SCF Done:  E(RB3LYP) =  -535.310885183     A.U. after    9 cycles
 SCF Done:  E(RB3LYP) =  -535.310889488     A.U. after    9 cycles
 SCF Done:  E(RB3LYP) =  -535.310896904     A.U. after   10 cycles
 SCF Done:  E(RB3LYP) =  -535.310910756     A.U. after   10 cycles
 SCF Done:  E(RB3LYP) =  -535.310919537     A.U. after   11 cycles
 SCF Done:  E(RB3LYP) =  -535.310919830     A.U. after    8 cycles
 SCF Done:  E(RB3LYP) =  -535.310919845     A.U. after    7 cycles
 Optimization completed.
    -- Stationary point found.
 Normal termination of Gaussian 09 at Fri Feb 16 20:54:36 2018.

 --------------------------------------------------------------------
 #N Geom=AllCheck Guess=TCheck SCRF=Check GenChk RB3LYP/6-31G(d) Freq
 --------------------------------------------------------------------

 Structure from the checkpoint file:  frag31-conf2.chk
 -----------------------------
 Optimization for frag31-conf2
 -----------------------------
 Charge =  1 Multiplicity = 1

                         Standard orientation:
 ---------------------------------------------------------------------
 Center     Atomic      Atomic             Coordinates (Angstroms)
 Number     Number       Type             X           Y           Z
 ---------------------------------------------------------------------
      1          6           0       -2.160875   -1.759768   -0.254938
      2          6           0       -2.904684   -0.699608   -0.777276
      3          6           0       -0.999937   -1.479980    0.456053
      4          6           0       -2.456725    0.588893   -0.570012
      5          6           0       -0.572850   -0.167285    0.650060
      6          6           0        2.293496   -0.003296   -0.369727
      7          6           0        3.603755   -0.539975   -0.896232
      8          6           0       -0.882335    2.263028    0.246650
      9          6           0        0.690133    0.101737    1.458098
     10          7           0       -1.319989    0.847209    0.128700
     11          7           0        1.854389   -0.504501    0.834062
     12          8           0        1.619801    0.836185   -0.960331
     13          1           0       -2.484356   -2.785990   -0.397244
     14          1           0       -3.817381   -0.860837   -1.339214
     15          1           0       -0.395774   -2.279530    0.870202
     16          1           0       -2.982815    1.452880   -0.955343
     17          1           0        3.484138   -0.788762   -1.953775
     18          1           0        4.360832    0.249089   -0.830536
     19          1           0        3.962564   -1.419177   -0.354366
     20          1           0       -0.895037    2.571566    1.293429
     21          1           0        0.119470    2.336241   -0.179678
     22          1           0       -1.576818    2.884155   -0.316456
     23          1           0        0.845834    1.171222    1.609470
     24          1           0        0.560593   -0.355141    2.444017
     25          1           0        2.459684   -1.086625    1.396757
 ---------------------------------------------------------------------

 SCF Done:  E(RB3LYP) =  -535.310919845     A.U. after    1 cycles

 Isotropic polarizability for W=    0.000000      103.44 Bohr**3.
 End of Minotr Frequency-dependent properties file   721 does not exist.

                     1                      2                      3
                     A                      A                      A
 Frequencies --    48.0757                60.0377                79.8878
 Red. masses --     1.7833                 1.9077                 3.3905
 Frc consts  --     0.0024                 0.0041                 0.0127
 IR Inten    --     1.2806                 9.0526                 5.9164

                     4                      5                      6
                     A                      A                      A
 Frequencies --    90.0382               158.5363               208.2141
 Red. masses --     3.6385                 3.3844                 4.6498
 Frc consts  --     0.0174                 0.0501                 0.1188
 IR Inten    --     5.2595                 4.7609                16.7965

                     7                      8                      9
                     A                      A                      A
 Frequencies --   223.8335               249.7955               299.7400
 Red. masses --     2.9408                 1.1704                 3.9414
 Frc consts  --     0.0868                 0.0430                 0.2086
 IR Inten    --     1.2347                 0.2716                 3.3136

                    10                     11                     12
                     A                      A                      A
 Frequencies --   360.8489               424.0574               428.4974
 Red. masses --     2.1198                 1.9655                 1.5081
 Frc consts  --     0.1626                 0.2082                 0.1631
 IR Inten    --     5.8433                29.0921                54.3146

                    13                     14                     15
                     A                      A                      A
 Frequencies --   441.0599               464.8539               502.1004
 Red. masses --     2.8529                 3.3548                 3.8490
 Frc consts  --     0.3270                 0.4271                 0.5717
 IR Inten    --     2.6711                14.0228                 8.9850

                    16                     17                     18
                     A                      A                      A
 Frequencies --   546.6786               606.9304               638.2985
 Red. masses --     4.2147                 4.4305                 2.6784
 Frc consts  --     0.7421                 0.9616                 0.6429
 IR Inten    --     7.9901                 2.8504                 2.9866

                    19                     20                     21
                     A                      A                      A
 Frequencies --   671.5181               730.0142               782.2977
 Red. masses --     4.1256                 4.1434                 1.5549
 Frc consts  --     1.0961                 1.3010                 0.5607
 IR Inten    --     3.5363                 6.0321                27.4057

                    22                     23                     24
                     A                      A                      A
 Frequencies --   801.6733               832.1395               875.2193
 Red. masses --     2.6451                 4.6259                 2.5276
 Frc consts  --     1.0016                 1.8873                 1.1408
 IR Inten    --    22.8558                 4.3958                 4.9314

                    25                     26                     27
                     A                      A                      A
 Frequencies --   908.4044               983.5642              1003.7986
 Red. masses --     1.3488                 1.3532                 1.6284
 Frc consts  --     0.6558                 0.7713                 0.9667
 IR Inten    --     1.9115                 0.6488                 4.9212

                    28                     29                     30
                     A                      A                      A
 Frequencies --  1036.2850              1045.7935              1071.9297
 Red. masses --     1.3502                 2.5978                 1.7249
 Frc consts  --     0.8543                 1.6740                 1.1678
 IR Inten    --     0.4872                 4.8367                10.4436

                    31                     32                     33
                     A                      A                      A
 Frequencies --  1079.7103              1100.0185              1117.9756
 Red. masses --     2.2017                 2.2912                 2.5014
 Frc consts  --     1.5122                 1.6335                 1.8421
 IR Inten    --     1.3019                 0.9727                 3.9021

                    34                     35                     36
                     A                      A                      A
 Frequencies --  1160.0696              1174.4132              1204.6853
 Red. masses --     1.3450                 1.8488                 2.1945
 Frc consts  --     1.0665                 1.5024                 1.8764
 IR Inten    --     3.8443                 6.1097                18.1175

                    37                     38                     39
                     A                      A                      A
 Frequencies --  1208.7300              1249.3280              1278.6610
 Red. masses --     1.2581                 2.2226                 1.8139
 Frc consts  --     1.0830                 2.0439                 1.7473
 IR Inten    --     3.9489                11.0294                57.2964

                    40                     41                     42
                     A                      A                      A
 Frequencies --  1288.8690              1354.5526              1361.4005
 Red. masses --     1.6909                 2.3386                 1.5718
 Frc consts  --     1.6550                 2.5282                 1.7164
 IR Inten    --    51.8311                 7.4652                 8.2621

                    43                     44                     45
                     A                      A                      A
 Frequencies --  1404.7823              1430.2333              1458.9265
 Red. masses --     1.3126                 1.2284                 1.2054
 Frc consts  --     1.5262                 1.4805                 1.5116
 IR Inten    --    30.5127                18.5688                10.3425

                    46                     47                     48
                     A                      A                      A
 Frequencies --  1493.8943              1504.9831              1506.0166
 Red. masses --     1.0634                 1.4349                 1.4035
 Frc consts  --     1.3982                 1.9149                 1.8756
 IR Inten    --    19.9154                 4.2215                12.0205

                    49                     50                     51
                     A                      A                      A
 Frequencies --  1510.9609              1513.8182              1537.4476
 Red. masses --     1.1040                 1.1085                 1.3403
 Frc consts  --     1.4850                 1.4967                 1.8666
 IR Inten    --    32.9573                13.6839                 7.0345

                    52                     53                     54
                     A                      A                      A
 Frequencies --  1543.0148              1565.7697              1630.4436
 Red. masses --     1.7721                 1.4590                 5.5042
 Frc consts  --     2.4859                 2.1075                 8.6210
 IR Inten    --   141.1992                50.9131                19.3821

                    55                     56                     57
                     A                      A                      A
 Frequencies --  1683.0136              1768.1784              3072.7063
 Red. masses --     5.3677                 9.0733                 1.0365
 Frc consts  --     8.9580                16.7136                 5.7656
 IR Inten    --    46.6187               162.6316                 1.4996

                    58                     59                     60
                     A                      A                      A
 Frequencies --  3095.1684              3098.7380              3143.0971
 Red. masses --     1.0474                 1.0471                 1.1010
 Frc consts  --     5.9122                 5.9239                 6.4082
 IR Inten    --     1.5556                17.0803                 4.0606

                    61                     62                     63
                     A                      A                      A
 Frequencies --  3149.4188              3162.9148              3187.8400
 Red. masses --     1.1018                 1.1042                 1.1084
 Frc consts  --     6.4387                 6.5084                 6.6363
 IR Inten    --     6.5885                 5.3091                14.1811

                    64                     65                     66
                     A                      A                      A
 Frequencies --  3205.3494              3227.3925              3238.9790
 Red. masses --     1.1067                 1.0899                 1.0943
 Frc consts  --     6.6996                 6.6888                 6.7638
 IR Inten    --     5.0666                 0.1523                 0.4421

                    67                     68                     69
                     A                      A                      A
 Frequencies --  3246.8932              3263.9457              3625.7151
 Red. masses --     1.0946                 1.0969                 1.0793
 Frc consts  --     6.7987                 6.8852                 8.3596
 IR Inten    --     2.1842                 2.4589                49.7673

 - Thermochemistry -
 -------------------
 Temperature   298.150 Kelvin.  Pressure   1.00000 Atm.
 Atom     1 has atomic number  6 and mass  12.00000

 Molecular mass:   165.10279 amu.
 Principal axes and moments of inertia in atomic units:
                           1         2         3
     Eigenvalues --  1099.463612801.173953169.19662
           X            0.99982  -0.01868   0.00357
           Y            0.01860   0.99961   0.02107
           Z           -0.00396  -0.02100   0.99977
 This molecule is an asymmetric top.
 Rotational symmetry number  1.
 Warning -- assumption of classical behavior for rotation
           may cause significant error
 Rotational temperatures (Kelvin)      0.07878     0.03092     0.02733
 Rotational constants (GHZ):           1.64147     0.64428     0.56946
 Zero-point vibrational energy     564770.0 (Joules/Mol)
                                  134.98328 (Kcal/Mol)
 Warning -- explicit consideration of  17 degrees of freedom as
           vibrations may cause significant error
 Vibrational temperatures:     69.17    86.38   114.94   129.54   228.10
          (Kelvin)            299.57   322.05   359.40   431.26   519.18
                              610.12   616.51   634.59   668.82   722.41
                              786.55   873.24   918.37   966.16  1050.33
                             1125.55  1153.43  1197.26  1259.24  1306.99
                             1415.13  1444.24  1490.98  1504.66  1542.27
                             1553.46  1582.68  1608.52  1669.08  1689.72
                             1733.27  1739.09  1797.50  1839.71  1854.39
                             1948.90  1958.75  2021.17  2057.78  2099.07
                             2149.38  2165.33  2166.82  2173.93  2178.04
                             2212.04  2220.05  2252.79  2345.84  2421.48
                             2544.01  4420.93  4453.25  4458.39  4522.21
                             4531.31  4550.72  4586.59  4611.78  4643.49
                             4660.16  4671.55  4696.08  5216.59

 Zero-point correction=                           0.215110 (Hartree/Particle)
 Thermal correction to Energy=                    0.226882
 Thermal correction to Enthalpy=                  0.227826
 Thermal correction to Gibbs Free Energy=         0.176737
 Sum of electronic and zero-point Energies=           -535.095810
 Sum of electronic and thermal Energies=              -535.084038
 Sum of electronic and thermal Enthalpies=            -535.083094
 Sum of electronic and thermal Free Energies=         -535.134183

                     E (Thermal)             CV                S
                      KCal/Mol        Cal/Mol-Kelvin    Cal/Mol-Kelvin
 Total                  142.371             43.983            107.527
 Electronic               0.000              0.000              0.000
 Translational            0.889              2.981             41.213
 Rotational               0.889              2.981             30.657
 Vibrational            140.593             38.022             35.657
 Vibration     1          0.595              1.978              4.895
 Vibration     2          0.597              1.973              4.456
 Vibration     3          0.600              1.963              3.894
 Vibration     4          0.602              1.956              3.659
 Vibration     5          0.621              1.893              2.567
 Vibration     6          0.642              1.828              2.059
 Vibration     7          0.649              1.805              1.928
 Vibration     8          0.663              1.763              1.732
 Vibration     9          0.692              1.674              1.418
 Vibration    10          0.735              1.553              1.118
 Vibration    11          0.786              1.418              0.878
 Vibration    12          0.790              1.408              0.864
 Vibration    13          0.801              1.381              0.823
 Vibration    14          0.822              1.328              0.752
 Vibration    15          0.857              1.245              0.653
 Vibration    16          0.902              1.147              0.551
 Vibration    17          0.966              1.017              0.438

 Optimization completed.
    -- Stationary point found.
 Normal termination of Gaussian 09 at Fri Feb 16 21:25:32 2018.
