 Gaussian 09, Revision C.01,
 Gaussian 09:  AM64L-G09RevC.01 23-Sep-2011

 ----------------------------------------------------------------------
 #HF/6-31G* Geom=AllCheck Guess=Read Pop=(MK,ReadRadii) Integral=(Grid=
 UltraFine) iop(6/33=2)
 ----------------------------------------------------------------------

 Structure from the checkpoint file:  frag31-conf2.chk
 -----------------------------
 Optimization for frag31-conf2
 -----------------------------
 Charge =  1 Multiplicity = 1

                         Standard orientation:
 ---------------------------------------------------------------------
 Center     Atomic      Atomic             Coordinates (Angstroms)
 Number     Number       Type             X           Y           Z
 ---------------------------------------------------------------------
      1          6           0       -2.160875   -1.759768   -0.254938
      2          6           0       -2.904684   -0.699608   -0.777276
      3          6           0       -0.999937   -1.479980    0.456053
      4          6           0       -2.456725    0.588893   -0.570012
      5          6           0       -0.572850   -0.167285    0.650060
      6          6           0        2.293496   -0.003296   -0.369727
      7          6           0        3.603755   -0.539975   -0.896232
      8          6           0       -0.882335    2.263028    0.246650
      9          6           0        0.690133    0.101737    1.458098
     10          7           0       -1.319989    0.847209    0.128700
     11          7           0        1.854389   -0.504501    0.834062
     12          8           0        1.619801    0.836185   -0.960331
     13          1           0       -2.484356   -2.785990   -0.397244
     14          1           0       -3.817381   -0.860837   -1.339214
     15          1           0       -0.395774   -2.279530    0.870202
     16          1           0       -2.982815    1.452880   -0.955343
     17          1           0        3.484138   -0.788762   -1.953775
     18          1           0        4.360832    0.249089   -0.830536
     19          1           0        3.962564   -1.419177   -0.354366
     20          1           0       -0.895037    2.571566    1.293429
     21          1           0        0.119470    2.336241   -0.179678
     22          1           0       -1.576818    2.884155   -0.316456
     23          1           0        0.845834    1.171222    1.609470
     24          1           0        0.560593   -0.355141    2.444017
     25          1           0        2.459684   -1.086625    1.396757
 ---------------------------------------------------------------------

 SCF Done:  E(RHF) =  -531.961866542     A.U. after   14 cycles

 The electronic state is 1-A.
 Alpha  occ. eigenvalues --  -20.65967 -15.83922 -15.73334 -11.48773 -11.48661
 Alpha  occ. eigenvalues --  -11.47471 -11.44039 -11.43763 -11.42258 -11.41397
 Alpha  occ. eigenvalues --  -11.41314 -11.34990  -1.51455  -1.49821  -1.37136
 Alpha  occ. eigenvalues --   -1.28505  -1.24068  -1.14676  -1.13679  -1.09028
 Alpha  occ. eigenvalues --   -1.04968  -1.00352  -0.92826  -0.88299  -0.86782
 Alpha  occ. eigenvalues --   -0.84012  -0.82742  -0.79685  -0.78990  -0.78597
 Alpha  occ. eigenvalues --   -0.77968  -0.73470  -0.72223  -0.71535  -0.70872
 Alpha  occ. eigenvalues --   -0.69482  -0.68949  -0.68559  -0.66840  -0.63053
 Alpha  occ. eigenvalues --   -0.56446  -0.55807  -0.53927  -0.51253
 Alpha virt. eigenvalues --   -0.08110  -0.03970   0.05831   0.07775   0.08824
 Alpha virt. eigenvalues --    0.10369   0.12736   0.14087   0.15021   0.16555
 Alpha virt. eigenvalues --    0.16631   0.17546   0.17834   0.19780   0.19991

 Mulliken atomic charges:
              1
     1  C   -0.087006
     2  C   -0.275386
     3  C   -0.269350
     4  C    0.160794
     5  C    0.456603
     6  C    0.766291
     7  C   -0.587717
     8  C   -0.354507
     9  C   -0.175702
    10  N   -0.651928
    11  N   -0.799862
    12  O   -0.633954
    13  H    0.287701
    14  H    0.285373
    15  H    0.270029
    16  H    0.292190
    17  H    0.236642
    18  H    0.234957
    19  H    0.191778
    20  H    0.226922
    21  H    0.294981
    22  H    0.229137
    23  H    0.241299
    24  H    0.244038
    25  H    0.416677
 Sum of Mulliken atomic charges =   1.00000

 Dipole moment (field-independent basis, Debye):
    X=             -3.0469    Y=             -1.3202    Z=              2.5362  Tot=              4.1784
 Quadrupole moment (field-independent basis, Debye-Ang):
   XX=            -35.2414   YY=            -52.5556   ZZ=            -64.4228
   XY=             -5.1042   XZ=              9.0265   YZ=              1.2340

 Normal termination of Gaussian 09 at Sat Feb 17 21:02:34 2018.
