 Gaussian 09, Revision C.01,
 Gaussian 09:  AM64L-G09RevC.01 23-Sep-2011

 ----------------------------------------------------------------------
 #HF/6-31G* Geom=AllCheck Guess=Read Pop=(MK,ReadRadii) Integral=(Grid=
 UltraFine) iop(6/33=2)
 ----------------------------------------------------------------------

 Structure from the checkpoint file:  frag2-conf0.chk
 ----------------------------
 Optimization for frag2-conf0
 ----------------------------
 Charge =  0 Multiplicity = 1

                         Standard orientation:
 ---------------------------------------------------------------------
 Center     Atomic      Atomic             Coordinates (Angstroms)
 Number     Number       Type             X           Y           Z
 ---------------------------------------------------------------------
      1          6           0        0.544959    1.736234   -0.344516
      2          6           0        3.686662   -1.764371   -0.190392
      3          6           0       -4.251927   -1.508770   -0.405914
      4          6           0       -3.303612   -2.536820    0.226467
      5          6           0       -3.469952   -0.469168   -1.219674
      6          6           0       -2.211865   -1.856747    1.065096
      7          6           0       -2.377699    0.213017   -0.379039
      8          6           0       -1.413045   -0.809594    0.258240
      9          6           0       -0.131268    4.056364   -0.568734
     10          6           0        0.275817    3.175553    1.692696
     11          6           0        2.166156   -1.705306    0.182281
     12          6           0       -0.346736   -0.173784    1.179649
     13          6           0        0.878812    0.514274    0.536295
     14          7           0        0.264895    2.914694    0.255316
     15          7           0        1.645757   -0.409998   -0.364795
     16          8           0        4.274553   -2.825217    0.073372
     17          8           0        0.533641    1.575829   -1.574026
     18          8           0        4.129919   -0.693034   -0.704080
     19          1           0       -4.991251   -2.012940   -1.041288
     20          1           0       -4.815565   -0.998041    0.388885
     21          1           0       -3.865036   -3.243750    0.850428
     22          1           0       -2.829806   -3.129818   -0.569726
     23          1           0       -3.002895   -0.963196   -2.084580
     24          1           0       -4.150528    0.290109   -1.625388
     25          1           0       -2.674972   -1.357638    1.929996
     26          1           0       -1.525364   -2.611477    1.470785
     27          1           0       -1.827976    0.920089   -1.007210
     28          1           0       -2.850686    0.796714    0.425297
     29          1           0       -0.910470   -1.352871   -0.557981
     30          1           0       -1.129147    4.399217   -0.273028
     31          1           0       -0.141273    3.754126   -1.613638
     32          1           0        0.578063    4.879621   -0.429188
     33          1           0        0.854725    4.084465    1.886175
     34          1           0        0.730513    2.360875    2.252097
     35          1           0       -0.744978    3.329402    2.061756
     36          1           0        2.055775   -1.715539    1.267707
     37          1           0        1.610451   -2.543168   -0.238104
     38          1           0       -0.828874    0.561947    1.834043
     39          1           0        0.044103   -0.947941    1.850391
     40          1           0        1.580936    0.785933    1.327308
     41          1           0        2.570386    0.021248   -0.666684
     42          1           0        1.106597   -0.526157   -1.228557
 ---------------------------------------------------------------------

 SCF Done:  E(RHF) =  -839.727743415     A.U. after   13 cycles

 The electronic state is 1-A.
 Alpha  occ. eigenvalues --  -20.56653 -20.47104 -20.45396 -15.68601 -15.64087
 Alpha  occ. eigenvalues --  -11.40185 -11.34403 -11.31142 -11.31082 -11.28839
 Alpha  occ. eigenvalues --  -11.28567 -11.28195 -11.26655 -11.24675 -11.24357
 Alpha  occ. eigenvalues --  -11.23904 -11.23856 -11.23613  -1.42079  -1.34731
 Alpha  occ. eigenvalues --   -1.30713  -1.28767  -1.23344  -1.15164  -1.09685
 Alpha  occ. eigenvalues --   -1.03843  -1.02433  -1.01099  -0.98128  -0.97298
 Alpha  occ. eigenvalues --   -0.90378  -0.85569  -0.83059  -0.79500  -0.79183
 Alpha  occ. eigenvalues --   -0.77232  -0.75339  -0.70931  -0.69490  -0.68785
 Alpha  occ. eigenvalues --   -0.67066  -0.65980  -0.65478  -0.63997  -0.63156
 Alpha  occ. eigenvalues --   -0.62319  -0.61638  -0.60756  -0.59721  -0.59492
 Alpha  occ. eigenvalues --   -0.58296  -0.57715  -0.56773  -0.56093  -0.55170
 Alpha  occ. eigenvalues --   -0.54431  -0.54230  -0.53518  -0.52080  -0.50510
 Alpha  occ. eigenvalues --   -0.50197  -0.49582  -0.47486  -0.46209  -0.45226
 Alpha  occ. eigenvalues --   -0.44578  -0.41204  -0.38114  -0.35817  -0.35058
 Alpha virt. eigenvalues --    0.14006   0.17380   0.17786   0.20760   0.21015
 Alpha virt. eigenvalues --    0.22091   0.23098   0.23175   0.25538   0.26398
 Alpha virt. eigenvalues --    0.26810   0.27081   0.27219   0.28114   0.28697

 Mulliken atomic charges:
              1
     1  C    0.834048
     2  C    0.794362
     3  C   -0.311804
     4  C   -0.314697
     5  C   -0.313691
     6  C   -0.312139
     7  C   -0.332447
     8  C   -0.171347
     9  C   -0.304677
    10  C   -0.293422
    11  C   -0.273937
    12  C   -0.326755
    13  C   -0.113269
    14  N   -0.670826
    15  N   -0.807611
    16  O   -0.681761
    17  O   -0.657524
    18  O   -0.754392
    19  H    0.171436
    20  H    0.152535
    21  H    0.172470
    22  H    0.159024
    23  H    0.160509
    24  H    0.170521
    25  H    0.154838
    26  H    0.169314
    27  H    0.199264
    28  H    0.146028
    29  H    0.153703
    30  H    0.175708
    31  H    0.247344
    32  H    0.184035
    33  H    0.200745
    34  H    0.187590
    35  H    0.188258
    36  H    0.214014
    37  H    0.222745
    38  H    0.190445
    39  H    0.198940
    40  H    0.241618
    41  H    0.497442
    42  H    0.453362
 Sum of Mulliken atomic charges =   0.00000

 Dipole moment (field-independent basis, Debye):
    X=            -12.0175    Y=              6.9175    Z=              4.3732  Tot=             14.5394
 Quadrupole moment (field-independent basis, Debye-Ang):
   XX=           -170.3307   YY=           -109.5843   ZZ=           -110.2914
   XY=             26.4455   XZ=              7.4803   YZ=              7.3624

 Normal termination of Gaussian 09 at Sun Feb 18 17:09:22 2018.
