 Gaussian 09, Revision C.01,
 Gaussian 09:  AM64L-G09RevC.01 23-Sep-2011

 --------------------------------------------------------------
 #B3LYP/6-31G* Integral=(Grid=UltraFine) freq Opt pop=none SCRF
 --------------------------------------------------------------

 99/9=1/99;
 ----------------------------
 Optimization for frag2-conf0
 ----------------------------
 Charge =  0 Multiplicity = 1

 SCF Done:  E(RB3LYP) =  -845.033436019     A.U. after   13 cycles
 SCF Done:  E(RB3LYP) =  -845.042196872     A.U. after   14 cycles
 SCF Done:  E(RB3LYP) =  -845.033118429     A.U. after   12 cycles
 SCF Done:  E(RB3LYP) =  -845.042890532     A.U. after   11 cycles
 SCF Done:  E(RB3LYP) =  -845.044230496     A.U. after   12 cycles
 SCF Done:  E(RB3LYP) =  -845.046137376     A.U. after   11 cycles
 SCF Done:  E(RB3LYP) =  -845.047098277     A.U. after   11 cycles
 SCF Done:  E(RB3LYP) =  -845.045234859     A.U. after   14 cycles
 SCF Done:  E(RB3LYP) =  -845.047531130     A.U. after   12 cycles
 SCF Done:  E(RB3LYP) =  -845.047600898     A.U. after   10 cycles
 SCF Done:  E(RB3LYP) =  -845.047962018     A.U. after    8 cycles
 SCF Done:  E(RB3LYP) =  -845.047970412     A.U. after    9 cycles
 SCF Done:  E(RB3LYP) =  -845.047976234     A.U. after    8 cycles
 SCF Done:  E(RB3LYP) =  -845.047981179     A.U. after    8 cycles
 SCF Done:  E(RB3LYP) =  -845.047981400     A.U. after    8 cycles
 SCF Done:  E(RB3LYP) =  -845.047981578     A.U. after    7 cycles
 SCF Done:  E(RB3LYP) =  -845.047981448     A.U. after    6 cycles
 SCF Done:  E(RB3LYP) =  -845.047981094     A.U. after    7 cycles
 SCF Done:  E(RB3LYP) =  -845.047980989     A.U. after    6 cycles
 Optimization completed.
    -- Stationary point found.
 Normal termination of Gaussian 09 at Sat Feb 17 20:05:05 2018.

 --------------------------------------------------------------------
 #N Geom=AllCheck Guess=TCheck SCRF=Check GenChk RB3LYP/6-31G(d) Freq
 --------------------------------------------------------------------

 Structure from the checkpoint file:  frag2-conf0.chk
 ----------------------------
 Optimization for frag2-conf0
 ----------------------------
 Charge =  0 Multiplicity = 1

                         Standard orientation:
 ---------------------------------------------------------------------
 Center     Atomic      Atomic             Coordinates (Angstroms)
 Number     Number       Type             X           Y           Z
 ---------------------------------------------------------------------
      1          6           0        0.544959    1.736234   -0.344516
      2          6           0        3.686662   -1.764371   -0.190392
      3          6           0       -4.251927   -1.508770   -0.405914
      4          6           0       -3.303612   -2.536820    0.226467
      5          6           0       -3.469952   -0.469168   -1.219674
      6          6           0       -2.211865   -1.856747    1.065096
      7          6           0       -2.377699    0.213017   -0.379039
      8          6           0       -1.413045   -0.809594    0.258240
      9          6           0       -0.131268    4.056364   -0.568734
     10          6           0        0.275817    3.175553    1.692696
     11          6           0        2.166156   -1.705306    0.182281
     12          6           0       -0.346736   -0.173784    1.179649
     13          6           0        0.878812    0.514274    0.536295
     14          7           0        0.264895    2.914694    0.255316
     15          7           0        1.645757   -0.409998   -0.364795
     16          8           0        4.274553   -2.825217    0.073372
     17          8           0        0.533641    1.575829   -1.574026
     18          8           0        4.129919   -0.693034   -0.704080
     19          1           0       -4.991251   -2.012940   -1.041288
     20          1           0       -4.815565   -0.998041    0.388885
     21          1           0       -3.865036   -3.243750    0.850428
     22          1           0       -2.829806   -3.129818   -0.569726
     23          1           0       -3.002895   -0.963196   -2.084580
     24          1           0       -4.150528    0.290109   -1.625388
     25          1           0       -2.674972   -1.357638    1.929996
     26          1           0       -1.525364   -2.611477    1.470785
     27          1           0       -1.827976    0.920089   -1.007210
     28          1           0       -2.850686    0.796714    0.425297
     29          1           0       -0.910470   -1.352871   -0.557981
     30          1           0       -1.129147    4.399217   -0.273028
     31          1           0       -0.141273    3.754126   -1.613638
     32          1           0        0.578063    4.879621   -0.429188
     33          1           0        0.854725    4.084465    1.886175
     34          1           0        0.730513    2.360875    2.252097
     35          1           0       -0.744978    3.329402    2.061756
     36          1           0        2.055775   -1.715539    1.267707
     37          1           0        1.610451   -2.543168   -0.238104
     38          1           0       -0.828874    0.561947    1.834043
     39          1           0        0.044103   -0.947941    1.850391
     40          1           0        1.580936    0.785933    1.327308
     41          1           0        2.570386    0.021248   -0.666684
     42          1           0        1.106597   -0.526157   -1.228557
 ---------------------------------------------------------------------

 SCF Done:  E(RB3LYP) =  -845.047980989     A.U. after    1 cycles

 Isotropic polarizability for W=    0.000000      199.18 Bohr**3.
 End of Minotr Frequency-dependent properties file   721 does not exist.

                     1                      2                      3
                     A                      A                      A
 Frequencies --    22.0607                25.3473                39.1683
 Red. masses --     3.1641                 5.5455                 3.6439
 Frc consts  --     0.0009                 0.0021                 0.0033
 IR Inten    --     5.4652                13.7217                 7.1258

                     4                      5                      6
                     A                      A                      A
 Frequencies --    50.4085                69.8551                70.6711
 Red. masses --     4.0044                 4.5886                 2.3256
 Frc consts  --     0.0060                 0.0132                 0.0068
 IR Inten    --    12.3080                 2.2484                 1.2697

                     7                      8                      9
                     A                      A                      A
 Frequencies --    93.5540               103.5361               117.4340
 Red. masses --     2.1331                 1.8997                 1.5761
 Frc consts  --     0.0110                 0.0120                 0.0128
 IR Inten    --     1.4082                 4.4430                 2.0289

                    10                     11                     12
                     A                      A                      A
 Frequencies --   134.3124               152.7569               173.5621
 Red. masses --     2.7743                 3.1557                 3.1742
 Frc consts  --     0.0295                 0.0434                 0.0563
 IR Inten    --    12.2934                 1.5190                 8.2250

                    13                     14                     15
                     A                      A                      A
 Frequencies --   197.2673               233.4541               262.5961
 Red. masses --     3.5557                 1.7885                 2.5132
 Frc consts  --     0.0815                 0.0574                 0.1021
 IR Inten    --     1.6044                 0.5229                 7.0258

                    16                     17                     18
                     A                      A                      A
 Frequencies --   272.5052               289.0531               308.0861
 Red. masses --     4.4234                 2.6513                 3.1076
 Frc consts  --     0.1935                 0.1305                 0.1738
 IR Inten    --     4.4771                 8.2888                31.2587

                    19                     20                     21
                     A                      A                      A
 Frequencies --   340.3735               372.5473               394.2929
 Red. masses --     1.8019                 3.2333                 3.8004
 Frc consts  --     0.1230                 0.2644                 0.3481
 IR Inten    --     5.6476                63.3617                 8.7632

                    22                     23                     24
                     A                      A                      A
 Frequencies --   418.3942               435.4906               448.8110
 Red. masses --     2.3812                 2.2162                 2.7244
 Frc consts  --     0.2456                 0.2476                 0.3233
 IR Inten    --     2.1813                12.5638                 0.2561

                    25                     26                     27
                     A                      A                      A
 Frequencies --   468.4394               510.6565               537.8296
 Red. masses --     3.7459                 3.4818                 1.7699
 Frc consts  --     0.4843                 0.5349                 0.3016
 IR Inten    --    13.1464                42.7139                14.8096

                    28                     29                     30
                     A                      A                      A
 Frequencies --   573.0699               593.1038               623.0226
 Red. masses --     2.8812                 3.4195                 4.0840
 Frc consts  --     0.5575                 0.7087                 0.9340
 IR Inten    --    55.0439                13.5733                 5.4590

                    31                     32                     33
                     A                      A                      A
 Frequencies --   694.7191               735.1089               752.2189
 Red. masses --     5.5436                 4.9011                 2.7769
 Frc consts  --     1.5764                 1.5604                 0.9257
 IR Inten    --    10.5333                19.3084                22.0282

                    34                     35                     36
                     A                      A                      A
 Frequencies --   799.7866               809.7368               848.8957
 Red. masses --     1.5028                 2.2067                 2.5062
 Frc consts  --     0.5664                 0.8525                 1.0641
 IR Inten    --     2.2074                12.4770                11.2860

                    37                     38                     39
                     A                      A                      A
 Frequencies --   862.5979               879.0936               887.5518
 Red. masses --     3.9569                 2.3764                 2.6477
 Frc consts  --     1.7347                 1.0820                 1.2289
 IR Inten    --    72.2176                 0.6989                25.0427

                    40                     41                     42
                     A                      A                      A
 Frequencies --   906.0830               924.5240               942.4026
 Red. masses --     2.0275                 1.4394                 1.9614
 Frc consts  --     0.9807                 0.7249                 1.0263
 IR Inten    --    17.7087                 6.7711                29.9983

                    43                     44                     45
                     A                      A                      A
 Frequencies --   955.1254               975.9391               996.1901
 Red. masses --     2.0755                 2.4889                 2.2718
 Frc consts  --     1.1156                 1.3967                 1.3283
 IR Inten    --     7.0113                 9.1063                14.0488

                    46                     47                     48
                     A                      A                      A
 Frequencies --  1026.2686              1045.7311              1053.4277
 Red. masses --     2.7935                 2.0715                 2.0376
 Frc consts  --     1.7335                 1.3347                 1.3322
 IR Inten    --     2.2319                 1.1447                 7.1518

                    49                     50                     51
                     A                      A                      A
 Frequencies --  1071.0656              1084.0408              1086.6171
 Red. masses --     1.3848                 1.4185                 2.8997
 Frc consts  --     0.9360                 0.9821                 2.0173
 IR Inten    --     2.2840                10.6930                28.9075

                    52                     53                     54
                     A                      A                      A
 Frequencies --  1101.0203              1110.0937              1123.5037
 Red. masses --     1.5395                 1.6852                 2.7987
 Frc consts  --     1.0996                 1.2236                 2.0814
 IR Inten    --     0.8170                 1.7293                17.5487

                    55                     56                     57
                     A                      A                      A
 Frequencies --  1134.6628              1162.8625              1179.2556
 Red. masses --     1.2613                 1.9801                 1.6060
 Frc consts  --     0.9567                 1.5776                 1.3159
 IR Inten    --     3.5832                88.4709                65.1789

                    58                     59                     60
                     A                      A                      A
 Frequencies --  1183.6311              1208.3369              1223.3949
 Red. masses --     1.3715                 1.3503                 1.4007
 Frc consts  --     1.1321                 1.1616                 1.2352
 IR Inten    --     2.4215                 0.8807                 1.4372

                    61                     62                     63
                     A                      A                      A
 Frequencies --  1269.5663              1272.7513              1276.7530
 Red. masses --     1.3610                 1.9322                 1.9047
 Frc consts  --     1.2924                 1.8441                 1.8293
 IR Inten    --    11.8334                 7.0185               175.7074

                    64                     65                     66
                     A                      A                      A
 Frequencies --  1296.1592              1301.6956              1308.8378
 Red. masses --     1.2888                 1.2359                 1.2941
 Frc consts  --     1.2757                 1.2338                 1.3062
 IR Inten    --     4.9864                 3.2103                 2.6778

                    67                     68                     69
                     A                      A                      A
 Frequencies --  1323.5379              1339.2995              1353.4579
 Red. masses --     1.3284                 1.2673                 1.2977
 Frc consts  --     1.3711                 1.3393                 1.4006
 IR Inten    --    18.0759                 8.6293                22.3903

                    70                     71                     72
                     A                      A                      A
 Frequencies --  1362.6708              1368.1931              1385.4272
 Red. masses --     4.6082                 1.2589                 1.3718
 Frc consts  --     5.0415                 1.3885                 1.5514
 IR Inten    --   213.2951                 8.5679                 0.7627

                    73                     74                     75
                     A                      A                      A
 Frequencies --  1391.2945              1398.3630              1401.8688
 Red. masses --     1.4022                 1.4679                 1.4946
 Frc consts  --     1.5992                 1.6911                 1.7305
 IR Inten    --     0.7601                 4.7773                14.4311

                    76                     77                     78
                     A                      A                      A
 Frequencies --  1412.6852              1422.2592              1424.9232
 Red. masses --     1.4656                 1.4479                 1.5365
 Frc consts  --     1.7233                 1.7257                 1.8381
 IR Inten    --   290.8316                40.2516               401.7914

                    79                     80                     81
                     A                      A                      A
 Frequencies --  1436.4074              1451.7726              1477.5736
 Red. masses --     1.3935                 1.1677                 1.5762
 Frc consts  --     1.6940                 1.4500                 2.0275
 IR Inten    --   105.5564                17.6202                17.0987

                    82                     83                     84
                     A                      A                      A
 Frequencies --  1495.3840              1498.6900              1504.5894
 Red. masses --     1.0792                 1.1606                 1.0862
 Frc consts  --     1.4219                 1.5358                 1.4487
 IR Inten    --    31.3862                19.6177                 7.9447

                    85                     86                     87
                     A                      A                      A
 Frequencies --  1505.7558              1509.2345              1510.7717
 Red. masses --     1.0597                 1.0911                 1.0885
 Frc consts  --     1.4156                 1.4643                 1.4638
 IR Inten    --     2.3130                 3.8842                 0.1006

                    88                     89                     90
                     A                      A                      A
 Frequencies --  1513.3112              1514.4644              1519.7602
 Red. masses --     1.0951                 1.0880                 1.0505
 Frc consts  --     1.4775                 1.4702                 1.4295
 IR Inten    --    11.5826                10.8062                27.7740

                    91                     92                     93
                     A                      A                      A
 Frequencies --  1524.1633              1528.6112              1560.4940
 Red. masses --     1.0843                 1.1002                 1.5020
 Frc consts  --     1.4841                 1.5147                 2.1551
 IR Inten    --     7.4621                 0.4994                64.3056

                    94                     95                     96
                     A                      A                      A
 Frequencies --  1677.1461              1707.1429              1771.1215
 Red. masses --     1.1125                 6.3546                 7.0448
 Frc consts  --     1.8437                10.9114                13.0201
 IR Inten    --    90.0641               567.9952               495.7024

                    97                     98                     99
                     A                      A                      A
 Frequencies --  2860.3138              2994.9223              3014.9266
 Red. masses --     1.0740                 1.0809                 1.0669
 Frc consts  --     5.1768                 5.7121                 5.7136
 IR Inten    --   799.9247                31.6380                37.4759

                   100                    101                    102
                     A                      A                      A
 Frequencies --  3019.9854              3020.2925              3022.7057
 Red. masses --     1.0683                 1.0692                 1.0641
 Frc consts  --     5.7405                 5.7463                 5.7281
 IR Inten    --    32.9533                14.1060                11.7580

                   103                    104                    105
                     A                      A                      A
 Frequencies --  3025.9748              3055.7470              3060.2431
 Red. masses --     1.0631                 1.0381                 1.0623
 Frc consts  --     5.7352                 5.7113                 5.8613
 IR Inten    --   149.3664                29.2991                12.2661

                   106                    107                    108
                     A                      A                      A
 Frequencies --  3061.0729              3063.2100              3068.3158
 Red. masses --     1.0437                 1.0948                 1.0957
 Frc consts  --     5.7619                 6.0524                 6.0777
 IR Inten    --    90.9597               117.1241                92.9916

                   109                    110                    111
                     A                      A                      A
 Frequencies --  3068.6654              3072.9182              3097.4700
 Red. masses --     1.0958                 1.1038                 1.1015
 Frc consts  --     6.0798                 6.1411                 6.2265
 IR Inten    --    45.3566               159.2064                43.3097

                   112                    113                    114
                     A                      A                      A
 Frequencies --  3111.8998              3112.0542              3115.6533
 Red. masses --     1.0920                 1.1046                 1.1048
 Frc consts  --     6.2307                 6.3033                 6.3185
 IR Inten    --    40.1175                55.0688                 4.5420

                   115                    116                    117
                     A                      A                      A
 Frequencies --  3122.4308              3127.4747              3188.6956
 Red. masses --     1.0837                 1.0621                 1.1087
 Frc consts  --     6.2252                 6.1207                 6.6422
 IR Inten    --    12.8057                11.9901                 6.6794

                   118                    119                    120
                     A                      A                      A
 Frequencies --  3200.6182              3205.4362              3459.9336
 Red. masses --     1.0965                 1.0983                 1.0745
 Frc consts  --     6.6177                 6.6491                 7.5789
 IR Inten    --    16.6607                 3.9060                87.7628

 - Thermochemistry -
 -------------------
 Temperature   298.150 Kelvin.  Pressure   1.00000 Atm.
 Atom     1 has atomic number  6 and mass  12.00000

 Molecular mass:   256.17869 amu.
 Principal axes and moments of inertia in atomic units:
                           1         2         3
     Eigenvalues --  4341.168156498.163819465.60596
           X            0.99833   0.05736   0.00682
           Y           -0.05741   0.99832   0.00742
           Z           -0.00638  -0.00780   0.99995
 This molecule is an asymmetric top.
 Rotational symmetry number  1.
 Warning -- assumption of classical behavior for rotation
           may cause significant error
 Rotational temperatures (Kelvin)      0.01995     0.01333     0.00915
 Rotational constants (GHZ):           0.41573     0.27773     0.19066
 Zero-point vibrational energy     982508.8 (Joules/Mol)
                                  234.82524 (Kcal/Mol)
 Warning -- explicit consideration of  29 degrees of freedom as
           vibrations may cause significant error
 Vibrational temperatures:     31.74    36.47    56.35    72.53   100.51
          (Kelvin)            101.68   134.60   148.97   168.96   193.25
                              219.78   249.72   283.82   335.89   377.82
                              392.07   415.88   443.27   489.72   536.01
                              567.30   601.98   626.57   645.74   673.98
                              734.72   773.82   824.52   853.34   896.39
                              999.54  1057.66  1082.27  1150.71  1165.03
                             1221.37  1241.08  1264.82  1276.99  1303.65
                             1330.18  1355.91  1374.21  1404.16  1433.29
                             1476.57  1504.57  1515.65  1541.02  1559.69
                             1563.40  1584.12  1597.18  1616.47  1632.52
                             1673.10  1696.68  1702.98  1738.53  1760.19
                             1826.62  1831.20  1836.96  1864.88  1872.85
                             1883.12  1904.27  1926.95  1947.32  1960.58
                             1968.52  1993.32  2001.76  2011.93  2016.97
                             2032.54  2046.31  2050.14  2066.67  2088.77
                             2125.90  2151.52  2156.28  2164.77  2166.44
                             2171.45  2173.66  2177.31  2178.97  2186.59
                             2192.93  2199.33  2245.20  2413.04  2456.19
                             2548.25  4115.35  4309.02  4337.80  4345.08
                             4345.52  4348.99  4353.70  4396.53  4403.00
                             4404.20  4407.27  4414.62  4415.12  4421.24
                             4456.56  4477.32  4477.55  4482.72  4492.48
                             4499.73  4587.82  4604.97  4611.90  4978.07

 Zero-point correction=                           0.374218 (Hartree/Particle)
 Thermal correction to Energy=                    0.393627
 Thermal correction to Enthalpy=                  0.394571
 Thermal correction to Gibbs Free Energy=         0.323898
 Sum of electronic and zero-point Energies=           -844.673763
 Sum of electronic and thermal Energies=              -844.654354
 Sum of electronic and thermal Enthalpies=            -844.653410
 Sum of electronic and thermal Free Energies=         -844.724083

                     E (Thermal)             CV                S
                      KCal/Mol        Cal/Mol-Kelvin    Cal/Mol-Kelvin
 Total                  247.005             71.361            148.743
 Electronic               0.000              0.000              0.000
 Translational            0.889              2.981             42.522
 Rotational               0.889              2.981             33.945
 Vibrational            245.227             65.399             72.276
 Vibration     1          0.593              1.985              6.439
 Vibration     2          0.593              1.985              6.164
 Vibration     3          0.594              1.981              5.301
 Vibration     4          0.595              1.977              4.801
 Vibration     5          0.598              1.968              4.157
 Vibration     6          0.598              1.968              4.135
 Vibration     7          0.603              1.954              3.584
 Vibration     8          0.605              1.946              3.387
 Vibration     9          0.608              1.935              3.142
 Vibration    10          0.613              1.919              2.883
 Vibration    11          0.619              1.900              2.638
 Vibration    12          0.627              1.875              2.397
 Vibration    13          0.637              1.844              2.158
 Vibration    14          0.654              1.790              1.852
 Vibration    15          0.670              1.741              1.644
 Vibration    16          0.676              1.724              1.580
 Vibration    17          0.686              1.694              1.480
 Vibration    18          0.698              1.658              1.373
 Vibration    19          0.720              1.595              1.210
 Vibration    20          0.744              1.529              1.069
 Vibration    21          0.761              1.482              0.984
 Vibration    22          0.781              1.430              0.897
 Vibration    23          0.796              1.393              0.841
 Vibration    24          0.808              1.364              0.799
 Vibration    25          0.826              1.320              0.742
 Vibration    26          0.866              1.226              0.632
 Vibration    27          0.893              1.166              0.570
 Vibration    28          0.929              1.090              0.498
 Vibration    29          0.951              1.046              0.462

 Normal termination of Gaussian 09 at Sat Feb 17 20:46:56 2018.
