 Gaussian 09, Revision C.01,
 Gaussian 09:  AM64L-G09RevC.01 23-Sep-2011

 ---------------------------------------------------------
 #B3LYP/6-31G* Integral=(Grid=UltraFine) freq Opt pop=none
 ---------------------------------------------------------

 99/9=1/99;
 ----------------------------
 Optimization for frag2-conf1
 ----------------------------
 Charge =  0 Multiplicity = 1

 SCF Done:  E(RB3LYP) =  -1366.27130173     A.U. after   15 cycles
 SCF Done:  E(RB3LYP) =  -1366.27737539     A.U. after   15 cycles
 SCF Done:  E(RB3LYP) =  -1366.28126677     A.U. after   15 cycles
 SCF Done:  E(RB3LYP) =  -1366.28411883     A.U. after   13 cycles
 SCF Done:  E(RB3LYP) =  -1366.28559283     A.U. after   13 cycles
 SCF Done:  E(RB3LYP) =  -1366.28616990     A.U. after   13 cycles
 SCF Done:  E(RB3LYP) =  -1366.28644936     A.U. after   12 cycles
 SCF Done:  E(RB3LYP) =  -1366.28651559     A.U. after   11 cycles
 SCF Done:  E(RB3LYP) =  -1366.28654301     A.U. after   11 cycles
 SCF Done:  E(RB3LYP) =  -1366.28655204     A.U. after    9 cycles
 SCF Done:  E(RB3LYP) =  -1366.29187525     A.U. after   11 cycles
 SCF Done:  E(RB3LYP) =  -1366.29189074     A.U. after   11 cycles
 SCF Done:  E(RB3LYP) =  -1366.29190620     A.U. after   11 cycles
 SCF Done:  E(RB3LYP) =  -1366.29192456     A.U. after   11 cycles
 SCF Done:  E(RB3LYP) =  -1366.29193284     A.U. after   11 cycles
 SCF Done:  E(RB3LYP) =  -1366.29194049     A.U. after   10 cycles
 SCF Done:  E(RB3LYP) =  -1366.29194479     A.U. after   10 cycles
 SCF Done:  E(RB3LYP) =  -1366.29194515     A.U. after    8 cycles
 SCF Done:  E(RB3LYP) =  -1366.29194518     A.U. after    7 cycles
 Optimization completed.
    -- Stationary point found.
 Normal termination of Gaussian 09 at Mon Feb 26 22:55:19 2018.

 --------------------------------------------------------------------
 #N Geom=AllCheck Guess=TCheck SCRF=Check GenChk RB3LYP/6-31G(d) Freq
 --------------------------------------------------------------------

 Structure from the checkpoint file:  frag2-conf1.chk
 ----------------------------
 Optimization for frag2-conf1
 ----------------------------
 Charge =  0 Multiplicity = 1

                         Standard orientation:
 ---------------------------------------------------------------------
 Center     Atomic      Atomic             Coordinates (Angstroms)
 Number     Number       Type             X           Y           Z
 ---------------------------------------------------------------------
      1          6           0       -0.833680    2.391381    0.940096
      2          6           0       -2.653357   -1.758285    1.095164
      3          6           0        3.464219   -0.025325    0.892137
      4          6           0       -0.218545    1.308399    0.061581
      5          7           0       -1.397529   -1.115525    0.669569
      6          7           0        0.851177    0.625989    0.768273
      7          8           0        2.192838    0.422454   -1.402157
      8          8           0        1.654216   -1.696297   -0.066100
      9          8           0       -1.134418   -0.408441   -1.826080
     10          8           0       -2.872532    0.719567   -0.331624
     11         16           0        2.001506   -0.268216   -0.128820
     12         16           0       -1.550996    0.106489   -0.516733
     13          1           0       -1.238727    1.968136    1.865107
     14          1           0       -0.057537    3.118164    1.197577
     15          1           0       -1.646089    2.896331    0.414102
     16          1           0       -3.345135   -0.990102    1.441745
     17          1           0       -2.414527   -2.425710    1.927912
     18          1           0       -3.136936   -2.336701    0.298673
     19          1           0        4.270478   -0.593904    0.422748
     20          1           0        3.701939    1.038576    0.914833
     21          1           0        3.270295   -0.408277    1.895900
     22          1           0        0.179279    1.710392   -0.873076
     23          1           0       -0.705407   -1.786537    0.328465
     24          1           0        0.465997    0.028738    1.503786
 ---------------------------------------------------------------------

 SCF Done:  E(RB3LYP) =  -1366.29194518     A.U. after    1 cycles

 Isotropic polarizability for W=    0.000000      100.98 Bohr**3.
 End of Minotr Frequency-dependent properties file   721 does not exist.

                     1                      2                      3
                     A                      A                      A
 Frequencies --    33.8488                50.8573                67.0294
 Red. masses --     4.4214                 5.2294                 5.6372
 Frc consts  --     0.0030                 0.0080                 0.0149
 IR Inten    --     4.2129                 5.4023                 1.6763

                     4                      5                      6
                     A                      A                      A
 Frequencies --   104.8785               144.0593               158.9893
 Red. masses --     3.5049                 2.5434                 1.3470
 Frc consts  --     0.0227                 0.0311                 0.0201
 IR Inten    --     0.9303                 2.7818                 0.3114

                     7                      8                      9
                     A                      A                      A
 Frequencies --   189.0971               203.9139               215.1140
 Red. masses --     3.8629                 2.1499                 1.2238
 Frc consts  --     0.0814                 0.0527                 0.0334
 IR Inten    --     7.3393                 2.2334                 0.2247

                    10                     11                     12
                     A                      A                      A
 Frequencies --   235.2674               242.0186               274.5089
 Red. masses --     1.9860                 2.2438                 3.7107
 Frc consts  --     0.0648                 0.0774                 0.1647
 IR Inten    --     1.5062                 0.2158                 1.6993

                    13                     14                     15
                     A                      A                      A
 Frequencies --   289.7740               309.9638               345.1774
 Red. masses --     3.6694                 3.5185                 3.9423
 Frc consts  --     0.1815                 0.1992                 0.2767
 IR Inten    --     8.8415                 3.5302                39.4658

                    16                     17                     18
                     A                      A                      A
 Frequencies --   372.3900               403.3907               443.4048
 Red. masses --     5.3768                 4.0152                 5.5946
 Frc consts  --     0.4393                 0.3850                 0.6481
 IR Inten    --    13.5983                10.2975                12.9216

                    19                     20                     21
                     A                      A                      A
 Frequencies --   471.9831               484.8461               518.5287
 Red. masses --     5.4428                 7.1529                 4.3917
 Frc consts  --     0.7144                 0.9907                 0.6957
 IR Inten    --     8.3135                 9.6636                11.8464

                    22                     23                     24
                     A                      A                      A
 Frequencies --   535.0276               610.2445               666.3847
 Red. masses --     4.3231                 6.7369                 3.2054
 Frc consts  --     0.7291                 1.4781                 0.8386
 IR Inten    --    32.3251               113.2262                60.2311

                    25                     26                     27
                     A                      A                      A
 Frequencies --   725.1684               755.5454               855.0855
 Red. masses --     3.9325                 5.2894                 1.6136
 Frc consts  --     1.2184                 1.7790                 0.6951
 IR Inten    --    68.1842                42.8638               341.9089

                    28                     29                     30
                     A                      A                      A
 Frequencies --   902.4417               953.8613               998.6586
 Red. masses --     1.3531                 2.1753                 1.4059
 Frc consts  --     0.6493                 1.1661                 0.8261
 IR Inten    --    21.5002                56.1517                53.0133

                    31                     32                     33
                     A                      A                      A
 Frequencies --   999.8483              1059.7652              1063.6857
 Red. masses --     1.3626                 2.0828                 2.1350
 Frc consts  --     0.8026                 1.3782                 1.4232
 IR Inten    --     7.2939                24.6349                42.6217

                    34                     35                     36
                     A                      A                      A
 Frequencies --  1107.2985              1119.5620              1126.8503
 Red. masses --     7.4424                 2.7891                 7.6770
 Frc consts  --     5.3764                 2.0598                 5.7435
 IR Inten    --    88.3294                25.9877               161.2426

                    37                     38                     39
                     A                      A                      A
 Frequencies --  1155.7562              1158.6715              1173.7698
 Red. masses --     1.6082                 1.3309                 2.4864
 Frc consts  --     1.2657                 1.0527                 2.0183
 IR Inten    --    34.8058                 5.2763                24.6676

                    40                     41                     42
                     A                      A                      A
 Frequencies --  1274.0341              1314.7174              1334.9793
 Red. masses --     1.3982                 5.5029                 4.5222
 Frc consts  --     1.3371                 5.6041                 4.7484
 IR Inten    --    23.5271               120.1559               199.8147

                    43                     44                     45
                     A                      A                      A
 Frequencies --  1339.6227              1383.1148              1438.5287
 Red. masses --     1.4869                 1.2130                 1.2276
 Frc consts  --     1.5721                 1.3672                 1.4967
 IR Inten    --    46.6780                 9.4078                 5.7068

                    46                     47                     48
                     A                      A                      A
 Frequencies --  1454.9974              1475.3040              1475.6919
 Red. masses --     1.2603                 1.1488                 1.1353
 Frc consts  --     1.5720                 1.4732                 1.4566
 IR Inten    --    31.2527                26.8982                14.0428

                    49                     50                     51
                     A                      A                      A
 Frequencies --  1482.7222              1491.9299              1515.3911
 Red. masses --     1.0491                 1.1347                 1.0436
 Frc consts  --     1.3589                 1.4880                 1.4120
 IR Inten    --     3.8999                25.2823                10.6598

                    52                     53                     54
                     A                      A                      A
 Frequencies --  1521.3854              1522.6079              1543.4087
 Red. masses --     1.0547                 1.0653                 1.0420
 Frc consts  --     1.4383                 1.4551                 1.4625
 IR Inten    --     4.9815                 7.0908                 6.6531

                    55                     56                     57
                     A                      A                      A
 Frequencies --  3054.0566              3070.9458              3088.7331
 Red. masses --     1.0406                 1.0364                 1.0296
 Frc consts  --     5.7188                 5.7586                 5.7872
 IR Inten    --    50.1421                10.3589                 0.2314

                    58                     59                     60
                     A                      A                      A
 Frequencies --  3126.2194              3132.5089              3146.2432
 Red. masses --     1.0999                 1.0941                 1.0954
 Frc consts  --     6.3333                 6.3252                 6.3886
 IR Inten    --    18.9320                11.4843                 3.5276

                    61                     62                     63
                     A                      A                      A
 Frequencies --  3170.1828              3179.5616              3185.1210
 Red. masses --     1.1020                 1.1014                 1.1065
 Frc consts  --     6.5253                 6.5606                 6.6137
 IR Inten    --     4.5353                 4.8106                 0.4560

                    64                     65                     66
                     A                      A                      A
 Frequencies --  3202.0448              3466.2003              3473.5150
 Red. masses --     1.1082                 1.0734                 1.0756
 Frc consts  --     6.6947                 7.5982                 7.6459
 IR Inten    --     0.2438                38.3703                51.3156

 - Thermochemistry -
 -------------------
 Temperature   298.150 Kelvin.  Pressure   1.00000 Atm.
 Atom     1 has atomic number  6 and mass  12.00000

 Molecular mass:   216.02385 amu.
 Principal axes and moments of inertia in atomic units:
                           1         2         3
     Eigenvalues --  1488.793763540.698663864.70425
           X            0.99983   0.01833  -0.00271
           Y           -0.01833   0.99983  -0.00243
           Z            0.00266   0.00248   0.99999
 This molecule is an asymmetric top.
 Rotational symmetry number  1.
 Warning -- assumption of classical behavior for rotation
           may cause significant error
 Rotational temperatures (Kelvin)      0.05818     0.02446     0.02241
 Rotational constants (GHZ):           1.21222     0.50971     0.46698
 Zero-point vibrational energy     492804.2 (Joules/Mol)
                                  117.78304 (Kcal/Mol)
 Warning -- explicit consideration of  23 degrees of freedom as
           vibrations may cause significant error
 Vibrational temperatures:     48.70    73.17    96.44   150.90   207.27
          (Kelvin)            228.75   272.07   293.39   309.50   338.50
                              348.21   394.96   416.92   445.97   496.63
                              535.79   580.39   637.96   679.08   697.58
                              746.05   769.78   878.00   958.78  1043.35
                             1087.06  1230.28  1298.41  1372.39  1436.85
                             1438.56  1524.76  1530.40  1593.15  1610.80
                             1621.28  1662.87  1667.07  1688.79  1833.05
                             1891.58  1920.74  1927.42  1989.99  2069.72
                             2093.41  2122.63  2123.19  2133.30  2146.55
                             2180.31  2188.93  2190.69  2220.62  4394.10
                             4418.40  4443.99  4497.93  4506.98  4526.74
                             4561.18  4574.67  4582.67  4607.02  4987.08
                             4997.61

 Zero-point correction=                           0.187699 (Hartree/Particle)
 Thermal correction to Energy=                    0.202180
 Thermal correction to Enthalpy=                  0.203124
 Thermal correction to Gibbs Free Energy=         0.145958
 Sum of electronic and zero-point Energies=          -1366.104246
 Sum of electronic and thermal Energies=             -1366.089765
 Sum of electronic and thermal Enthalpies=           -1366.088821
 Sum of electronic and thermal Free Energies=        -1366.145987

                     E (Thermal)             CV                S
                      KCal/Mol        Cal/Mol-Kelvin    Cal/Mol-Kelvin
 Total                  126.870             51.934            120.316
 Electronic               0.000              0.000              0.000
 Translational            0.889              2.981             42.014
 Rotational               0.889              2.981             31.389
 Vibrational            125.092             45.973             46.914
 Vibration     1          0.594              1.983              5.590
 Vibration     2          0.595              1.977              4.784
 Vibration     3          0.598              1.970              4.239
 Vibration     4          0.605              1.945              3.362
 Vibration     5          0.616              1.909              2.749
 Vibration     6          0.621              1.893              2.562
 Vibration     7          0.633              1.855              2.237
 Vibration     8          0.640              1.834              2.097
 Vibration     9          0.645              1.818              2.000
 Vibration    10          0.655              1.787              1.838
 Vibration    11          0.658              1.776              1.788
 Vibration    12          0.677              1.720              1.568
 Vibration    13          0.686              1.693              1.475
 Vibration    14          0.699              1.655              1.363
 Vibration    15          0.724              1.585              1.188
 Vibration    16          0.744              1.529              1.070
 Vibration    17          0.769              1.463              0.950
 Vibration    18          0.803              1.375              0.816
 Vibration    19          0.829              1.312              0.732
 Vibration    20          0.841              1.284              0.697
 Vibration    21          0.874              1.209              0.613
 Vibration    22          0.890              1.173              0.576
 Vibration    23          0.969              1.010              0.432

 Optimization completed.
    -- Stationary point found.
 Normal termination of Gaussian 09 at Mon Feb 26 23:10:14 2018.
