 Gaussian 09, Revision C.01,
 Gaussian 09:  AM64L-G09RevC.01 23-Sep-2011

 ----------------------------------------------------------------------
 #HF/6-31G* Geom=AllCheck Guess=Read Pop=(MK,ReadRadii) Integral=(Grid=
 UltraFine) iop(6/33=2)
 ----------------------------------------------------------------------

 Structure from the checkpoint file:  frag2-conf1.chk
 ----------------------------
 Optimization for frag2-conf1
 ----------------------------
 Charge =  0 Multiplicity = 1

                         Standard orientation:
 ---------------------------------------------------------------------
 Center     Atomic      Atomic             Coordinates (Angstroms)
 Number     Number       Type             X           Y           Z
 ---------------------------------------------------------------------
      1          6           0       -0.833680    2.391381    0.940096
      2          6           0       -2.653357   -1.758285    1.095164
      3          6           0        3.464219   -0.025325    0.892137
      4          6           0       -0.218545    1.308399    0.061581
      5          7           0       -1.397529   -1.115525    0.669569
      6          7           0        0.851177    0.625989    0.768273
      7          8           0        2.192838    0.422454   -1.402157
      8          8           0        1.654216   -1.696297   -0.066100
      9          8           0       -1.134418   -0.408441   -1.826080
     10          8           0       -2.872532    0.719567   -0.331624
     11         16           0        2.001506   -0.268216   -0.128820
     12         16           0       -1.550996    0.106489   -0.516733
     13          1           0       -1.238727    1.968136    1.865107
     14          1           0       -0.057537    3.118164    1.197577
     15          1           0       -1.646089    2.896331    0.414102
     16          1           0       -3.345135   -0.990102    1.441745
     17          1           0       -2.414527   -2.425710    1.927912
     18          1           0       -3.136936   -2.336701    0.298673
     19          1           0        4.270478   -0.593904    0.422748
     20          1           0        3.701939    1.038576    0.914833
     21          1           0        3.270295   -0.408277    1.895900
     22          1           0        0.179279    1.710392   -0.873076
     23          1           0       -0.705407   -1.786537    0.328465
     24          1           0        0.465997    0.028738    1.503786
 ---------------------------------------------------------------------

 SCF Done:  E(RHF) =  -1361.65415854     A.U. after   13 cycles

 The electronic state is 1-A.
 Alpha  occ. eigenvalues --  -92.23219 -92.20611 -20.57841 -20.57724 -20.56374
 Alpha  occ. eigenvalues --  -20.55914 -15.63727 -15.61393 -11.33840 -11.29594
 Alpha  occ. eigenvalues --  -11.27703 -11.25249  -9.20364  -9.17906  -6.88953
 Alpha  occ. eigenvalues --   -6.88921  -6.88829  -6.86469  -6.86443  -6.86345
 Alpha  occ. eigenvalues --   -1.47310  -1.45264  -1.35560  -1.33667  -1.26945
 Alpha  occ. eigenvalues --   -1.22791  -1.07904  -1.03658  -0.96698  -0.90549
 Alpha  occ. eigenvalues --   -0.86412  -0.82221  -0.74153  -0.74012  -0.69979
 Alpha  occ. eigenvalues --   -0.69138  -0.67472  -0.66737  -0.63925  -0.63183
 Alpha  occ. eigenvalues --   -0.62192  -0.61559  -0.60259  -0.58608  -0.57394
 Alpha  occ. eigenvalues --   -0.56570  -0.55396  -0.54751  -0.51704  -0.51194
 Alpha  occ. eigenvalues --   -0.49662  -0.49056  -0.48265  -0.47212  -0.46715
 Alpha  occ. eigenvalues --   -0.43196  -0.41434
 Alpha virt. eigenvalues --    0.19051   0.20232   0.21254   0.22081   0.23230
 Alpha virt. eigenvalues --    0.23646   0.24023   0.24876   0.25544   0.26841
 Alpha virt. eigenvalues --    0.27932   0.28732   0.29188   0.29374   0.30731

 Mulliken atomic charges:
              1
     1  C   -0.482958
     2  C   -0.307334
     3  C   -0.702662
     4  C   -0.236892
     5  N   -0.928685
     6  N   -0.875789
     7  O   -0.669944
     8  O   -0.699796
     9  O   -0.673013
    10  O   -0.704232
    11  S    1.610013
    12  S    1.626405
    13  H    0.182495
    14  H    0.195954
    15  H    0.222136
    16  H    0.219624
    17  H    0.187077
    18  H    0.187323
    19  H    0.242352
    20  H    0.236961
    21  H    0.222578
    22  H    0.288113
    23  H    0.437064
    24  H    0.423210
 Sum of Mulliken atomic charges =   0.00000

 Dipole moment (field-independent basis, Debye):
    X=              2.7064    Y=              0.8399    Z=              6.8232  Tot=              7.3882
 Quadrupole moment (field-independent basis, Debye-Ang):
   XX=            -83.6751   YY=            -83.4934   ZZ=            -93.0238
   XY=              6.6980   XZ=              2.3500   YZ=             -2.6008

 Normal termination of Gaussian 09 at Mon Feb 26 23:18:22 2018.
