 Gaussian 09, Revision C.01,
 Gaussian 09:  AM64L-G09RevC.01 23-Sep-2011

 ----------------------------------------------------------------------
 #HF/6-31G* Geom=AllCheck Guess=Read Pop=(MK,ReadRadii) Integral=(Grid=
 UltraFine) iop(6/33=2)
 ----------------------------------------------------------------------

 Structure from the checkpoint file:  frag17-conf1.chk
 -----------------------------
 Optimization for frag17-conf1
 -----------------------------
 Charge =  0 Multiplicity = 1

                         Standard orientation:
 ---------------------------------------------------------------------
 Center     Atomic      Atomic             Coordinates (Angstroms)
 Number     Number       Type             X           Y           Z
 ---------------------------------------------------------------------
      1          6           0        2.159940    1.494110    0.040836
      2          6           0        0.949499    0.944402   -0.371337
      3          6           0        3.183995    0.633521    0.445217
      4          6           0        1.896398   -1.210121    0.056268
      5          6           0        0.801918   -0.449009   -0.365584
      6          6           0       -2.475727    0.143896    0.006320
      7          6           0       -3.532284    0.258594    1.094721
      8          6           0       -0.494907   -1.107413   -0.791984
      9          7           0        3.067306   -0.698839    0.456635
     10          7           0       -1.599700   -0.898850    0.141672
     11          8           0       -2.426213    0.930320   -0.933848
     12          1           0        2.313758    2.569393    0.046423
     13          1           0        0.123732    1.571552   -0.696576
     14          1           0        4.142598    1.032746    0.773369
     15          1           0        1.825788   -2.298827    0.068464
     16          1           0       -3.404092    1.214192    1.613236
     17          1           0       -4.519121    0.274101    0.622974
     18          1           0       -3.501591   -0.551776    1.829732
     19          1           0       -0.829369   -0.702359   -1.750529
     20          1           0       -0.345846   -2.186020   -0.912377
     21          1           0       -1.602395   -1.429616    1.001177
 ---------------------------------------------------------------------

 SCF Done:  E(RHF) =  -492.543932497     A.U. after   14 cycles

 The electronic state is 1-A.
 Alpha  occ. eigenvalues --  -20.52754 -15.59741 -15.56717 -11.36144 -11.27927
 Alpha  occ. eigenvalues --  -11.27381 -11.27354 -11.25371 -11.24650 -11.24473
 Alpha  occ. eigenvalues --  -11.24120  -1.37926  -1.25429  -1.23341  -1.09283
 Alpha  occ. eigenvalues --   -1.04611  -1.00983  -0.93568  -0.85592  -0.83108
 Alpha  occ. eigenvalues --   -0.79179  -0.71046  -0.69514  -0.66329  -0.65620
 Alpha  occ. eigenvalues --   -0.64362  -0.61424  -0.58703  -0.58309  -0.56828
 Alpha  occ. eigenvalues --   -0.56590  -0.54746  -0.52839  -0.52697  -0.50211
 Alpha  occ. eigenvalues --   -0.42597  -0.41728  -0.39301  -0.37179  -0.33837
 Alpha virt. eigenvalues --    0.11860   0.13667   0.18954   0.21055   0.25389
 Alpha virt. eigenvalues --    0.25723   0.27576   0.29959   0.30848   0.31367
 Alpha virt. eigenvalues --    0.32381   0.33353   0.33940   0.34365   0.39144

 Mulliken atomic charges:
              1
     1  C   -0.257704
     2  C   -0.163061
     3  C    0.064640
     4  C    0.039978
     5  C   -0.034221
     6  C    0.762918
     7  C   -0.575655
     8  C   -0.165689
     9  N   -0.522461
    10  N   -0.790545
    11  O   -0.633668
    12  H    0.213707
    13  H    0.260954
    14  H    0.203563
    15  H    0.194981
    16  H    0.207731
    17  H    0.212521
    18  H    0.169584
    19  H    0.236162
    20  H    0.190879
    21  H    0.385387
 Sum of Mulliken atomic charges =   0.00000

 Dipole moment (field-independent basis, Debye):
    X=             -1.5312    Y=             -1.0711    Z=              2.1619  Tot=              2.8575
 Quadrupole moment (field-independent basis, Debye-Ang):
   XX=            -69.9515   YY=            -60.8015   ZZ=            -66.4661
   XY=             10.7539   XZ=             -8.6807   YZ=              2.6316

 Normal termination of Gaussian 09 at Sat Feb 17 20:57:58 2018.
