 Gaussian 09, Revision C.01,
 Gaussian 09:  AM64L-G09RevC.01 23-Sep-2011

 ---------------------------------------------------------
 #B3LYP/6-31G* Integral=(Grid=UltraFine) freq Opt pop=none
 ---------------------------------------------------------

 99/9=1/99;
 -----------------------------
 Optimization for frag28-conf2
 -----------------------------
 Charge =  0 Multiplicity = 1

 SCF Done:  E(RB3LYP) =  -955.201955727     A.U. after   15 cycles
 SCF Done:  E(RB3LYP) =  -955.204516051     A.U. after   12 cycles
 SCF Done:  E(RB3LYP) =  -955.204740947     A.U. after   12 cycles
 SCF Done:  E(RB3LYP) =  -955.204939795     A.U. after   12 cycles
 SCF Done:  E(RB3LYP) =  -955.205107622     A.U. after   11 cycles
 SCF Done:  E(RB3LYP) =  -955.205527751     A.U. after   13 cycles
 SCF Done:  E(RB3LYP) =  -955.205633243     A.U. after   12 cycles
 SCF Done:  E(RB3LYP) =  -955.205671002     A.U. after   12 cycles
 SCF Done:  E(RB3LYP) =  -955.205680587     A.U. after   10 cycles
 SCF Done:  E(RB3LYP) =  -955.205696445     A.U. after   11 cycles
 SCF Done:  E(RB3LYP) =  -955.205743283     A.U. after   11 cycles
 SCF Done:  E(RB3LYP) =  -955.205761147     A.U. after   10 cycles
 SCF Done:  E(RB3LYP) =  -955.205776025     A.U. after   11 cycles
 SCF Done:  E(RB3LYP) =  -955.205779168     A.U. after   10 cycles
 SCF Done:  E(RB3LYP) =  -955.205779979     A.U. after    9 cycles
 SCF Done:  E(RB3LYP) =  -955.205780232     A.U. after    8 cycles
 SCF Done:  E(RB3LYP) =  -955.205780461     A.U. after    8 cycles
 SCF Done:  E(RB3LYP) =  -955.205780559     A.U. after    8 cycles
 SCF Done:  E(RB3LYP) =  -955.205780582     A.U. after    7 cycles
 Optimization completed.
    -- Stationary point found.
 Normal termination of Gaussian 09 at Fri Feb 16 20:17:07 2018.

 --------------------------------------------------------------------
 #N Geom=AllCheck Guess=TCheck SCRF=Check GenChk RB3LYP/6-31G(d) Freq
 --------------------------------------------------------------------

 Structure from the checkpoint file:  frag28-conf2.chk
 -----------------------------
 Optimization for frag28-conf2
 -----------------------------
 Charge =  0 Multiplicity = 1

                         Standard orientation:
 ---------------------------------------------------------------------
 Center     Atomic      Atomic             Coordinates (Angstroms)
 Number     Number       Type             X           Y           Z
 ---------------------------------------------------------------------
      1          6           0        2.884804    0.582665    0.107376
      2          6           0        2.574354    1.940936    0.159992
      3          6           0        0.339679    1.522409   -0.022585
      4          6           0        0.510119    0.132518   -0.093542
      5          6           0        1.832690   -0.319201   -0.018858
      6          6           0       -3.017977   -0.168425    0.166482
      7          6           0       -4.244931    0.491148   -0.444093
      8          6           0       -0.664216   -0.821269   -0.223489
      9          7           0        1.326325    2.416157    0.098645
     10          7           0       -1.901935   -0.188373   -0.635711
     11          8           0       -3.028348   -0.642760    1.293507
     12         17           0        2.194814   -2.039641   -0.074075
     13          1           0        3.910775    0.236433    0.164103
     14          1           0        3.369963    2.677069    0.258125
     15          1           0       -0.668803    1.926257   -0.068184
     16          1           0       -5.065726   -0.232389   -0.451849
     17          1           0       -4.551133    1.323570    0.196803
     18          1           0       -4.089745    0.864940   -1.461154
     19          1           0       -0.404983   -1.625276   -0.922530
     20          1           0       -0.876848   -1.293133    0.741887
     21          1           0       -1.966430    0.179335   -1.574224
 ---------------------------------------------------------------------

 SCF Done:  E(RB3LYP) =  -955.205780582     A.U. after    1 cycles

 Isotropic polarizability for W=    0.000000      105.25 Bohr**3.
 End of Minotr Frequency-dependent properties file   721 does not exist.

                     1                      2                      3
                     A                      A                      A
 Frequencies --    27.6859                31.9105                47.8829
 Red. masses --     4.0279                 3.6834                 1.4803
 Frc consts  --     0.0018                 0.0022                 0.0020
 IR Inten    --     1.7578                 1.6957                 5.8517

                     4                      5                      6
                     A                      A                      A
 Frequencies --    75.4032               144.0063               180.3829
 Red. masses --     2.4636                 5.1992                 7.5119
 Frc consts  --     0.0083                 0.0635                 0.1440
 IR Inten    --     5.2380                 2.7693                 2.7230

                     7                      8                      9
                     A                      A                      A
 Frequencies --   231.0546               266.2275               278.8838
 Red. masses --     5.5906                 4.8302                 2.7616
 Frc consts  --     0.1758                 0.2017                 0.1265
 IR Inten    --     1.3017                 2.2866                 9.2279

                    10                     11                     12
                     A                      A                      A
 Frequencies --   383.5800               411.4951               431.9272
 Red. masses --     4.5344                 9.9421                 2.8547
 Frc consts  --     0.3931                 0.9919                 0.3138
 IR Inten    --     3.0147                 3.2264                 2.6393

                    13                     14                     15
                     A                      A                      A
 Frequencies --   449.4559               509.6763               542.1842
 Red. masses --     1.2486                 3.6336                 4.7415
 Frc consts  --     0.1486                 0.5561                 0.8212
 IR Inten    --   102.7785                17.5878                 5.8926

                    16                     17                     18
                     A                      A                      A
 Frequencies --   614.5971               631.0536               645.6000
 Red. masses --     3.3608                 3.9727                 3.2024
 Frc consts  --     0.7480                 0.9321                 0.7864
 IR Inten    --     7.4651                 0.3465                 0.1645

                    19                     20                     21
                     A                      A                      A
 Frequencies --   713.2497               741.2818               824.8055
 Red. masses --     7.0396                 4.4222                 5.6568
 Frc consts  --     2.1100                 1.4317                 2.2674
 IR Inten    --    38.6524                 3.6955                12.2546

                    22                     23                     24
                     A                      A                      A
 Frequencies --   840.9928               878.3971               951.2904
 Red. masses --     1.2980                 2.6047                 1.3564
 Frc consts  --     0.5409                 1.1841                 0.7232
 IR Inten    --    16.5957                 9.0736                 0.6567

                    25                     26                     27
                     A                      A                      A
 Frequencies --   982.8321              1006.3625              1052.7518
 Red. masses --     1.4261                 1.6339                 2.6174
 Frc consts  --     0.8116                 0.9750                 1.7091
 IR Inten    --     0.3009                 6.6514                 8.5127

                    28                     29                     30
                     A                      A                      A
 Frequencies --  1068.7046              1070.5608              1098.1891
 Red. masses --     1.7787                 2.8635                 3.5119
 Frc consts  --     1.1969                 1.9336                 2.4954
 IR Inten    --     5.5092                19.6149                28.9610

                    31                     32                     33
                     A                      A                      A
 Frequencies --  1129.7120              1220.9975              1226.5288
 Red. masses --     3.5244                 2.4302                 1.7362
 Frc consts  --     2.6502                 2.1346                 1.5389
 IR Inten    --     8.2675                 6.6309                 3.5730

                    34                     35                     36
                     A                      A                      A
 Frequencies --  1266.3298              1290.2530              1302.3439
 Red. masses --     1.6772                 4.3457                 1.5347
 Frc consts  --     1.5846                 4.2624                 1.5337
 IR Inten    --    85.1854                 6.3807                99.1610

                    37                     38                     39
                     A                      A                      A
 Frequencies --  1326.0777              1402.9773              1427.5570
 Red. masses --     1.5957                 1.4059                 1.2604
 Frc consts  --     1.6532                 1.6304                 1.5133
 IR Inten    --    22.9909                11.5573                32.2780

                    40                     41                     42
                     A                      A                      A
 Frequencies --  1450.1400              1499.6117              1501.1236
 Red. masses --     1.8944                 1.0903                 1.0602
 Frc consts  --     2.3471                 1.4447                 1.4076
 IR Inten    --    42.1764                14.1805                 4.3778

                    43                     44                     45
                     A                      A                      A
 Frequencies --  1511.8828              1516.5226              1556.2445
 Red. masses --     2.3233                 1.0709                 1.9062
 Frc consts  --     3.1289                 1.4511                 2.7200
 IR Inten    --    40.8092                19.5667               251.4448

                    46                     47                     48
                     A                      A                      A
 Frequencies --  1606.7440              1632.2146              1793.8025
 Red. masses --     5.2284                 6.9757                 9.2562
 Frc consts  --     7.9527                10.9495                17.5481
 IR Inten    --    53.4421                25.6425               233.2881

                    49                     50                     51
                     A                      A                      A
 Frequencies --  3057.3867              3065.1316              3109.1680
 Red. masses --     1.0640                 1.0359                 1.0984
 Frc consts  --     5.8601                 5.7341                 6.2560
 IR Inten    --    19.1700                 8.2107                 9.7966

                    52                     53                     54
                     A                      A                      A
 Frequencies --  3140.6109              3143.3609              3181.9955
 Red. masses --     1.1036                 1.1012                 1.0896
 Frc consts  --     6.4137                 6.4106                 6.4998
 IR Inten    --    18.3508                 4.9867                24.1337

                    55                     56                     57
                     A                      A                      A
 Frequencies --  3194.0022              3230.5325              3626.5387
 Red. masses --     1.0896                 1.0941                 1.0776
 Frc consts  --     6.5493                 6.7278                 8.3504
 IR Inten    --    11.6029                 3.5789                18.4246

 - Thermochemistry -
 -------------------
 Temperature   298.150 Kelvin.  Pressure   1.00000 Atm.
 Atom     1 has atomic number  6 and mass  12.00000

 Molecular mass:   184.04034 amu.
 Principal axes and moments of inertia in atomic units:
                           1         2         3
     Eigenvalues --  1373.917523868.798814936.88606
           X            0.99990   0.00808   0.01201
           Y           -0.00807   0.99997  -0.00075
           Z           -0.01202   0.00065   0.99993
 This molecule is an asymmetric top.
 Rotational symmetry number  1.
 Warning -- assumption of classical behavior for rotation
           may cause significant error
 Rotational temperatures (Kelvin)      0.06304     0.02239     0.01754
 Rotational constants (GHZ):           1.31357     0.46649     0.36556
 Zero-point vibrational energy     427917.5 (Joules/Mol)
                                  102.27473 (Kcal/Mol)
 Warning -- explicit consideration of  16 degrees of freedom as
           vibrations may cause significant error
 Vibrational temperatures:     39.83    45.91    68.89   108.49   207.19
          (Kelvin)            259.53   332.44   383.04   401.25   551.89
                              592.05   621.45   646.67   733.31   780.08
                              884.27   907.94   928.87  1026.21  1066.54
                             1186.71  1210.00  1263.82  1368.69  1414.07
                             1447.93  1514.67  1537.63  1540.30  1580.05
                             1625.40  1756.74  1764.70  1821.96  1856.38
                             1873.78  1907.93  2018.57  2053.93  2086.43
                             2157.60  2159.78  2175.26  2181.93  2239.09
                             2311.74  2348.39  2580.88  4398.89  4410.04
                             4473.39  4518.63  4522.59  4578.18  4595.45
                             4648.01  5217.77

 Zero-point correction=                           0.162985 (Hartree/Particle)
 Thermal correction to Energy=                    0.174660
 Thermal correction to Enthalpy=                  0.175605
 Thermal correction to Gibbs Free Energy=         0.122439
 Sum of electronic and zero-point Energies=           -955.042795
 Sum of electronic and thermal Energies=              -955.031120
 Sum of electronic and thermal Enthalpies=            -955.030176
 Sum of electronic and thermal Free Energies=         -955.083342

                     E (Thermal)             CV                S
                      KCal/Mol        Cal/Mol-Kelvin    Cal/Mol-Kelvin
 Total                  109.601             41.599            111.897
 Electronic               0.000              0.000              0.000
 Translational            0.889              2.981             41.536
 Rotational               0.889              2.981             31.640
 Vibrational            107.824             35.638             38.720
 Vibration     1          0.593              1.984              5.989
 Vibration     2          0.594              1.983              5.707
 Vibration     3          0.595              1.978              4.903
 Vibration     4          0.599              1.965              4.007
 Vibration     5          0.616              1.909              2.750
 Vibration     6          0.629              1.866              2.324
 Vibration     7          0.653              1.794              1.871
 Vibration     8          0.672              1.735              1.621
 Vibration     9          0.679              1.713              1.541
 Vibration    10          0.753              1.505              1.025
 Vibration    11          0.775              1.445              0.921
 Vibration    12          0.793              1.401              0.852
 Vibration    13          0.808              1.362              0.797
 Vibration    14          0.865              1.229              0.634
 Vibration    15          0.897              1.157              0.561
 Vibration    16          0.974              1.001              0.425

 Optimization completed.
    -- Stationary point found.
 Normal termination of Gaussian 09 at Fri Feb 16 20:32:37 2018.
