 Gaussian 09, Revision C.01,
 Gaussian 09:  AM64L-G09RevC.01 23-Sep-2011

 ----------------------------------------------------------------------
 #HF/6-31G* Geom=AllCheck Guess=Read Pop=(MK,ReadRadii) Integral=(Grid=
 UltraFine) iop(6/33=2)
 ----------------------------------------------------------------------

 Structure from the checkpoint file:  frag28-conf2.chk
 -----------------------------
 Optimization for frag28-conf2
 -----------------------------
 Charge =  0 Multiplicity = 1

                         Standard orientation:
 ---------------------------------------------------------------------
 Center     Atomic      Atomic             Coordinates (Angstroms)
 Number     Number       Type             X           Y           Z
 ---------------------------------------------------------------------
      1          6           0        2.884804    0.582665    0.107376
      2          6           0        2.574354    1.940936    0.159992
      3          6           0        0.339679    1.522409   -0.022585
      4          6           0        0.510119    0.132518   -0.093542
      5          6           0        1.832690   -0.319201   -0.018858
      6          6           0       -3.017977   -0.168425    0.166482
      7          6           0       -4.244931    0.491148   -0.444093
      8          6           0       -0.664216   -0.821269   -0.223489
      9          7           0        1.326325    2.416157    0.098645
     10          7           0       -1.901935   -0.188373   -0.635711
     11          8           0       -3.028348   -0.642760    1.293507
     12         17           0        2.194814   -2.039641   -0.074075
     13          1           0        3.910775    0.236433    0.164103
     14          1           0        3.369963    2.677069    0.258125
     15          1           0       -0.668803    1.926257   -0.068184
     16          1           0       -5.065726   -0.232389   -0.451849
     17          1           0       -4.551133    1.323570    0.196803
     18          1           0       -4.089745    0.864940   -1.461154
     19          1           0       -0.404983   -1.625276   -0.922530
     20          1           0       -0.876848   -1.293133    0.741887
     21          1           0       -1.966430    0.179335   -1.574224
 ---------------------------------------------------------------------

 SCF Done:  E(RHF) =  -951.438781813     A.U. after   14 cycles

 The electronic state is 1-A.
 Alpha  occ. eigenvalues -- -104.84360 -20.52959 -15.60251 -15.58140 -11.36428
 Alpha  occ. eigenvalues --  -11.33221 -11.28913 -11.28774 -11.28521 -11.27081
 Alpha  occ. eigenvalues --  -11.26203 -11.24679 -10.57674  -8.04607  -8.04275
 Alpha  occ. eigenvalues --   -8.04273  -1.38280  -1.27284  -1.24036  -1.17668
 Alpha  occ. eigenvalues --   -1.07455  -1.05278  -1.01508  -0.94578  -0.86178
 Alpha  occ. eigenvalues --   -0.84020  -0.79819  -0.71555  -0.70335  -0.68538
 Alpha  occ. eigenvalues --   -0.66020  -0.63944  -0.62978  -0.59890  -0.59567
 Alpha  occ. eigenvalues --   -0.58180  -0.57178  -0.56448  -0.54898  -0.53733
 Alpha  occ. eigenvalues --   -0.51508  -0.49812  -0.46860  -0.43123  -0.42616
 Alpha  occ. eigenvalues --   -0.39885  -0.37518  -0.35106
 Alpha virt. eigenvalues --    0.10295   0.12278   0.18298   0.19060   0.20478
 Alpha virt. eigenvalues --    0.26045   0.27277   0.28151   0.29562   0.30290
 Alpha virt. eigenvalues --    0.31013   0.31966   0.32681   0.35026   0.35858

 Mulliken atomic charges:
              1
     1  C   -0.232352
     2  C    0.068674
     3  C    0.070735
     4  C   -0.035962
     5  C   -0.114458
     6  C    0.757375
     7  C   -0.579501
     8  C   -0.112187
     9  N   -0.518795
    10  N   -0.827001
    11  O   -0.612379
    12  Cl   0.018859
    13  H    0.239811
    14  H    0.214691
    15  H    0.216025
    16  H    0.212860
    17  H    0.213101
    18  H    0.167754
    19  H    0.203892
    20  H    0.260211
    21  H    0.388648
 Sum of Mulliken atomic charges =   0.00000

 Dipole moment (field-independent basis, Debye):
    X=              0.2116    Y=              0.5860    Z=             -3.6318  Tot=              3.6849
 Quadrupole moment (field-independent basis, Debye-Ang):
   XX=            -67.6394   YY=            -83.8487   ZZ=            -80.6010
   XY=             -3.1047   XZ=             11.4866   YZ=              1.5614

 Normal termination of Gaussian 09 at Sat Feb 17 21:01:10 2018.
