 Gaussian 09, Revision C.01,
 Gaussian 09:  AM64L-G09RevC.01 23-Sep-2011

 ----------------------------------------------------------------------
 #HF/6-31G* Geom=AllCheck Guess=Read Pop=(MK,ReadRadii) Integral=(Grid=
 UltraFine) iop(6/33=2)
 ----------------------------------------------------------------------

 Structure from the checkpoint file:  frag28-conf0.chk
 -----------------------------
 Optimization for frag28-conf0
 -----------------------------
 Charge =  0 Multiplicity = 1

                         Standard orientation:
 ---------------------------------------------------------------------
 Center     Atomic      Atomic             Coordinates (Angstroms)
 Number     Number       Type             X           Y           Z
 ---------------------------------------------------------------------
      1          6           0        2.538859    0.935075    0.405273
      2          6           0        3.415814   -0.146035    0.495778
      3          6           0        1.828794   -1.602157   -0.240669
      4          6           0        0.845171   -0.611321   -0.373193
      5          6           0        1.240812    0.690010   -0.034363
      6          6           0       -2.759178   -0.336821    0.045856
      7          6           0       -3.655845   -0.334663    1.275015
      8          6           0       -0.541542   -0.977051   -0.849647
      9          7           0        3.080803   -1.401329    0.179641
     10          7           0       -1.529038   -0.918191    0.219359
     11          8           0       -3.112139    0.154360   -1.017622
     12         17           0        0.123322    2.031474   -0.170897
     13          1           0        2.856863    1.938673    0.665086
     14          1           0        4.436992    0.011194    0.837964
     15          1           0        1.572574   -2.629393   -0.500661
     16          1           0       -3.234812   -0.868207    2.133118
     17          1           0       -3.849338    0.702948    1.565100
     18          1           0       -4.617019   -0.784857    1.010657
     19          1           0       -0.898863   -0.291873   -1.623242
     20          1           0       -0.509660   -1.982878   -1.289995
     21          1           0       -1.295757   -1.331127    1.110892
 ---------------------------------------------------------------------

 SCF Done:  E(RHF) =  -951.439104592     A.U. after   14 cycles

 The electronic state is 1-A.
 Alpha  occ. eigenvalues -- -104.84111 -20.52255 -15.59584 -15.58513 -11.35725
 Alpha  occ. eigenvalues --  -11.33524 -11.29474 -11.29464 -11.28391 -11.27154
 Alpha  occ. eigenvalues --  -11.26445 -11.24142 -10.57418  -8.04354  -8.04017
 Alpha  occ. eigenvalues --   -8.04008  -1.37557  -1.27712  -1.23440  -1.17620
 Alpha  occ. eigenvalues --   -1.07806  -1.05499  -1.01067  -0.94202  -0.86651
 Alpha  occ. eigenvalues --   -0.84089  -0.79396  -0.71203  -0.70479  -0.68433
 Alpha  occ. eigenvalues --   -0.65817  -0.65229  -0.62224  -0.59492  -0.58259
 Alpha  occ. eigenvalues --   -0.57826  -0.57354  -0.55986  -0.55284  -0.54343
 Alpha  occ. eigenvalues --   -0.50728  -0.49743  -0.46394  -0.43180  -0.42161
 Alpha  occ. eigenvalues --   -0.39502  -0.37622  -0.35798
 Alpha virt. eigenvalues --    0.09809   0.11598   0.18573   0.19749   0.21608
 Alpha virt. eigenvalues --    0.25479   0.27068   0.27192   0.30097   0.31083
 Alpha virt. eigenvalues --    0.31350   0.31893   0.32783   0.33335   0.38881

 Mulliken atomic charges:
              1
     1  C   -0.237659
     2  C    0.072863
     3  C    0.052736
     4  C   -0.030434
     5  C   -0.095094
     6  C    0.769495
     7  C   -0.577391
     8  C   -0.141920
     9  N   -0.518171
    10  N   -0.805087
    11  O   -0.621175
    12  Cl   0.040456
    13  H    0.240938
    14  H    0.216954
    15  H    0.212600
    16  H    0.166226
    17  H    0.211267
    18  H    0.209488
    19  H    0.258534
    20  H    0.189214
    21  H    0.386161
 Sum of Mulliken atomic charges =   0.00000

 Dipole moment (field-independent basis, Debye):
    X=              1.1230    Y=             -1.0934    Z=              3.0538  Tot=              3.4326
 Quadrupole moment (field-independent basis, Debye-Ang):
   XX=            -82.3536   YY=            -76.0245   ZZ=            -77.6436
   XY=             10.6487   XZ=             -8.6055   YZ=              1.9392

 Normal termination of Gaussian 09 at Sat Feb 17 21:00:55 2018.
