 Gaussian 09, Revision C.01,
 Gaussian 09:  AM64L-G09RevC.01 23-Sep-2011

 ---------------------------------------------------------
 #B3LYP/6-31G* Integral=(Grid=UltraFine) freq Opt pop=none
 ---------------------------------------------------------

 99/9=1/99;
 -----------------------------
 Optimization for frag28-conf0
 -----------------------------
 Charge =  0 Multiplicity = 1

 SCF Done:  E(RB3LYP) =  -955.201671434     A.U. after   15 cycles
 SCF Done:  E(RB3LYP) =  -955.204076906     A.U. after   12 cycles
 SCF Done:  E(RB3LYP) =  -955.204266546     A.U. after   11 cycles
 SCF Done:  E(RB3LYP) =  -955.204245157     A.U. after   11 cycles
 SCF Done:  E(RB3LYP) =  -955.204319569     A.U. after   10 cycles
 SCF Done:  E(RB3LYP) =  -955.204350183     A.U. after   11 cycles
 SCF Done:  E(RB3LYP) =  -955.204488450     A.U. after   13 cycles
 SCF Done:  E(RB3LYP) =  -955.204597625     A.U. after   12 cycles
 SCF Done:  E(RB3LYP) =  -955.204900445     A.U. after   14 cycles
 SCF Done:  E(RB3LYP) =  -955.204729342     A.U. after   15 cycles
 SCF Done:  E(RB3LYP) =  -955.204974009     A.U. after   14 cycles
 SCF Done:  E(RB3LYP) =  -955.205110472     A.U. after   13 cycles
 SCF Done:  E(RB3LYP) =  -955.205323779     A.U. after   12 cycles
 SCF Done:  E(RB3LYP) =  -955.205342830     A.U. after   12 cycles
 SCF Done:  E(RB3LYP) =  -955.205351846     A.U. after   11 cycles
 SCF Done:  E(RB3LYP) =  -955.205363700     A.U. after   10 cycles
 SCF Done:  E(RB3LYP) =  -955.205369833     A.U. after   10 cycles
 SCF Done:  E(RB3LYP) =  -955.205371243     A.U. after   10 cycles
 SCF Done:  E(RB3LYP) =  -955.205371354     A.U. after    8 cycles
 Optimization completed.
    -- Stationary point found.
 Normal termination of Gaussian 09 at Fri Feb 16 20:26:37 2018.

 --------------------------------------------------------------------
 #N Geom=AllCheck Guess=TCheck SCRF=Check GenChk RB3LYP/6-31G(d) Freq
 --------------------------------------------------------------------

 Structure from the checkpoint file:  frag28-conf0.chk
 -----------------------------
 Optimization for frag28-conf0
 -----------------------------
 Charge =  0 Multiplicity = 1

                         Standard orientation:
 ---------------------------------------------------------------------
 Center     Atomic      Atomic             Coordinates (Angstroms)
 Number     Number       Type             X           Y           Z
 ---------------------------------------------------------------------
      1          6           0        2.538859    0.935075    0.405273
      2          6           0        3.415814   -0.146035    0.495778
      3          6           0        1.828794   -1.602157   -0.240669
      4          6           0        0.845171   -0.611321   -0.373193
      5          6           0        1.240812    0.690010   -0.034363
      6          6           0       -2.759178   -0.336821    0.045856
      7          6           0       -3.655845   -0.334663    1.275015
      8          6           0       -0.541542   -0.977051   -0.849647
      9          7           0        3.080803   -1.401329    0.179641
     10          7           0       -1.529038   -0.918191    0.219359
     11          8           0       -3.112139    0.154360   -1.017622
     12         17           0        0.123322    2.031474   -0.170897
     13          1           0        2.856863    1.938673    0.665086
     14          1           0        4.436992    0.011194    0.837964
     15          1           0        1.572574   -2.629393   -0.500661
     16          1           0       -3.234812   -0.868207    2.133118
     17          1           0       -3.849338    0.702948    1.565100
     18          1           0       -4.617019   -0.784857    1.010657
     19          1           0       -0.898863   -0.291873   -1.623242
     20          1           0       -0.509660   -1.982878   -1.289995
     21          1           0       -1.295757   -1.331127    1.110892
 ---------------------------------------------------------------------

 SCF Done:  E(RB3LYP) =  -955.205371354     A.U. after    1 cycles

 Isotropic polarizability for W=    0.000000      104.90 Bohr**3.
 End of Minotr Frequency-dependent properties file   721 does not exist.

                     1                      2                      3
                     A                      A                      A
 Frequencies --    32.8616                39.7326                51.1021
 Red. masses --     3.7994                 5.4937                 1.4194
 Frc consts  --     0.0024                 0.0051                 0.0022
 IR Inten    --     0.8761                 4.8296                 5.1138

                     4                      5                      6
                     A                      A                      A
 Frequencies --    72.8181               146.4189               179.4261
 Red. masses --     2.6096                 5.0331                 8.0474
 Frc consts  --     0.0082                 0.0636                 0.1526
 IR Inten    --     4.4488                 4.9935                 2.1037

                     7                      8                      9
                     A                      A                      A
 Frequencies --   216.2494               263.5549               293.9823
 Red. masses --     7.6368                 3.6473                 3.8794
 Frc consts  --     0.2104                 0.1493                 0.1975
 IR Inten    --     5.7722                 4.5954                 1.3395

                    10                     11                     12
                     A                      A                      A
 Frequencies --   370.5059               418.6403               424.4486
 Red. masses --     3.8999                 2.7516                 1.3659
 Frc consts  --     0.3154                 0.2841                 0.1450
 IR Inten    --     3.3552                16.0224                78.8789

                    13                     14                     15
                     A                      A                      A
 Frequencies --   438.0734               491.1151               554.6160
 Red. masses --     3.9940                 3.6475                 5.2231
 Frc consts  --     0.4516                 0.5183                 0.9466
 IR Inten    --     6.4703                12.8367                 4.0518

                    16                     17                     18
                     A                      A                      A
 Frequencies --   614.8067               632.8056               652.9229
 Red. masses --     3.7918                 2.7348                 4.7264
 Frc consts  --     0.8444                 0.6452                 1.1872
 IR Inten    --     7.1459                 0.9766                 4.8794

                    19                     20                     21
                     A                      A                      A
 Frequencies --   705.5711               757.5865               838.7085
 Red. masses --     7.0895                 4.5728                 3.3196
 Frc consts  --     2.0795                 1.5463                 1.3758
 IR Inten    --    34.2405                 5.3030                12.5152

                    22                     23                     24
                     A                      A                      A
 Frequencies --   848.1505               915.1128               948.5133
 Red. masses --     1.5081                 2.6436                 1.3769
 Frc consts  --     0.6392                 1.3043                 0.7298
 IR Inten    --    17.3669                14.2605                 1.7976

                    25                     26                     27
                     A                      A                      A
 Frequencies --   985.8396              1004.2460              1028.7626
 Red. masses --     1.4200                 1.6663                 2.4562
 Frc consts  --     0.8131                 0.9901                 1.5316
 IR Inten    --     0.3461                 6.2519                 4.1100

                    28                     29                     30
                     A                      A                      A
 Frequencies --  1067.5167              1076.3472              1102.9688
 Red. masses --     1.7211                 2.6646                 4.2630
 Frc consts  --     1.1556                 1.8188                 3.0556
 IR Inten    --     6.2770                 0.9962                22.7706

                    31                     32                     33
                     A                      A                      A
 Frequencies --  1119.8335              1225.0147              1231.2598
 Red. masses --     3.8084                 1.7249                 2.3124
 Frc consts  --     2.8138                 1.5251                 2.0654
 IR Inten    --    18.0235                10.9108                 5.3931

                    34                     35                     36
                     A                      A                      A
 Frequencies --  1254.9838              1273.3662              1307.8776
 Red. masses --     1.4341                 1.9658                 3.6867
 Frc consts  --     1.3308                 1.8780                 3.7156
 IR Inten    --     3.0375               144.2208                 5.0621

                    37                     38                     39
                     A                      A                      A
 Frequencies --  1335.9700              1399.9538              1426.9296
 Red. masses --     1.5457                 1.3463                 1.2653
 Frc consts  --     1.6255                 1.5546                 1.5180
 IR Inten    --    23.1144                 5.0292                24.2226

                    40                     41                     42
                     A                      A                      A
 Frequencies --  1452.1452              1500.8693              1514.8882
 Red. masses --     2.0190                 1.0466                 1.9776
 Frc consts  --     2.5085                 1.3891                 2.6739
 IR Inten    --    15.0098                 8.1143                59.9767

                    43                     44                     45
                     A                      A                      A
 Frequencies --  1516.0860              1530.7719              1549.8772
 Red. masses --     1.0834                 1.1732                 1.9059
 Frc consts  --     1.4672                 1.6198                 2.6974
 IR Inten    --    16.3673                 8.2930               254.9997

                    46                     47                     48
                     A                      A                      A
 Frequencies --  1606.9165              1630.7494              1789.5952
 Red. masses --     5.4096                 7.0123                 9.3541
 Frc consts  --     8.2301                10.9871                17.6507
 IR Inten    --    57.1778                29.1768               243.3656

                    49                     50                     51
                     A                      A                      A
 Frequencies --  3038.2993              3064.6008              3126.1423
 Red. masses --     1.0708                 1.0359                 1.0921
 Frc consts  --     5.8241                 5.7320                 6.2884
 IR Inten    --    35.7199                 8.6126                 7.9455

                    52                     53                     54
                     A                      A                      A
 Frequencies --  3137.9877              3145.4182              3160.6319
 Red. masses --     1.1029                 1.1018                 1.0897
 Frc consts  --     6.3986                 6.4228                 6.4135
 IR Inten    --    14.8072                 9.3278                25.3541

                    55                     56                     57
                     A                      A                      A
 Frequencies --  3182.5080              3230.3005              3629.6829
 Red. masses --     1.0903                 1.0941                 1.0778
 Frc consts  --     6.5065                 6.7263                 8.3665
 IR Inten    --    19.5491                 3.3598                16.9337

 - Thermochemistry -
 -------------------
 Temperature   298.150 Kelvin.  Pressure   1.00000 Atm.
 Atom     1 has atomic number  6 and mass  12.00000

 Molecular mass:   184.04034 amu.
 Principal axes and moments of inertia in atomic units:
                           1         2         3
     Eigenvalues --  1203.511693607.715934318.54670
           X            0.99983   0.01227  -0.01372
           Y           -0.01208   0.99984   0.01341
           Z            0.01388  -0.01325   0.99982
 This molecule is an asymmetric top.
 Rotational symmetry number  1.
 Warning -- assumption of classical behavior for rotation
           may cause significant error
 Rotational temperatures (Kelvin)      0.07197     0.02401     0.02006
 Rotational constants (GHZ):           1.49956     0.50024     0.41790
 Zero-point vibrational energy     428000.3 (Joules/Mol)
                                  102.29453 (Kcal/Mol)
 Warning -- explicit consideration of  16 degrees of freedom as
           vibrations may cause significant error
 Vibrational temperatures:     47.28    57.17    73.52   104.77   210.66
          (Kelvin)            258.15   311.13   379.20   422.97   533.07
                              602.33   610.69   630.29   706.60   797.97
                              884.57   910.47   939.41  1015.16  1090.00
                             1206.71  1220.30  1316.64  1364.70  1418.40
                             1444.88  1480.16  1535.92  1548.62  1586.92
                             1611.19  1762.52  1771.51  1805.64  1832.09
                             1881.74  1922.16  2014.22  2053.03  2089.31
                             2159.41  2179.58  2181.31  2202.44  2229.92
                             2311.99  2346.28  2574.83  4371.43  4409.27
                             4497.82  4514.86  4525.55  4547.44  4578.91
                             4647.68  5222.30

 Zero-point correction=                           0.163017 (Hartree/Particle)
 Thermal correction to Energy=                    0.174678
 Thermal correction to Enthalpy=                  0.175622
 Thermal correction to Gibbs Free Energy=         0.122971
 Sum of electronic and zero-point Energies=           -955.042355
 Sum of electronic and thermal Energies=              -955.030693
 Sum of electronic and thermal Enthalpies=            -955.029749
 Sum of electronic and thermal Free Energies=         -955.082400

                     E (Thermal)             CV                S
                      KCal/Mol        Cal/Mol-Kelvin    Cal/Mol-Kelvin
 Total                  109.612             41.568            110.814
 Electronic               0.000              0.000              0.000
 Translational            0.889              2.981             41.536
 Rotational               0.889              2.981             31.306
 Vibrational            107.835             35.607             37.971
 Vibration     1          0.594              1.983              5.649
 Vibration     2          0.594              1.981              5.272
 Vibration     3          0.595              1.977              4.774
 Vibration     4          0.599              1.967              4.076
 Vibration     5          0.617              1.907              2.718
 Vibration     6          0.629              1.868              2.334
 Vibration     7          0.645              1.816              1.990
 Vibration     8          0.670              1.740              1.638
 Vibration     9          0.689              1.685              1.451
 Vibration    10          0.743              1.533              1.078
 Vibration    11          0.781              1.430              0.897
 Vibration    12          0.786              1.417              0.877
 Vibration    13          0.798              1.387              0.833
 Vibration    14          0.847              1.270              0.681
 Vibration    15          0.910              1.130              0.535
 Vibration    16          0.974              1.001              0.425

 Optimization completed.
    -- Stationary point found.
 Normal termination of Gaussian 09 at Fri Feb 16 20:43:25 2018.
