 Gaussian 09, Revision C.01,
 Gaussian 09:  AM64L-G09RevC.01 23-Sep-2011

 ---------------------------------------------------------
 #B3LYP/6-31G* Integral=(Grid=UltraFine) freq Opt pop=none
 ---------------------------------------------------------

 99/9=1/99;
 ----------------------------
 Optimization for frag2-conf0
 ----------------------------
 Charge =  0 Multiplicity = 1

 SCF Done:  E(RB3LYP) =  -1366.27771397     A.U. after   15 cycles
 SCF Done:  E(RB3LYP) =  -1366.28910675     A.U. after   13 cycles
 SCF Done:  E(RB3LYP) =  -1366.29065168     A.U. after   12 cycles
 SCF Done:  E(RB3LYP) =  -1366.29120770     A.U. after   12 cycles
 SCF Done:  E(RB3LYP) =  -1366.29199645     A.U. after   13 cycles
 SCF Done:  E(RB3LYP) =  -1366.29372791     A.U. after   13 cycles
 SCF Done:  E(RB3LYP) =  -1366.29469405     A.U. after   13 cycles
 SCF Done:  E(RB3LYP) =  -1366.29515659     A.U. after   13 cycles
 SCF Done:  E(RB3LYP) =  -1366.29610867     A.U. after   12 cycles
 SCF Done:  E(RB3LYP) =  -1366.29627052     A.U. after   12 cycles
 SCF Done:  E(RB3LYP) =  -1366.29629600     A.U. after   11 cycles
 SCF Done:  E(RB3LYP) =  -1366.29632116     A.U. after   11 cycles
 SCF Done:  E(RB3LYP) =  -1366.29632699     A.U. after   10 cycles
 SCF Done:  E(RB3LYP) =  -1366.29632847     A.U. after    9 cycles
 SCF Done:  E(RB3LYP) =  -1366.29632919     A.U. after    8 cycles
 SCF Done:  E(RB3LYP) =  -1366.29632963     A.U. after    8 cycles
 SCF Done:  E(RB3LYP) =  -1366.29632976     A.U. after    7 cycles
 SCF Done:  E(RB3LYP) =  -1366.29632981     A.U. after    7 cycles
 Optimization completed.
    -- Stationary point found.
 Normal termination of Gaussian 09 at Mon Feb 26 22:19:13 2018.

 --------------------------------------------------------------------
 #N Geom=AllCheck Guess=TCheck SCRF=Check GenChk RB3LYP/6-31G(d) Freq
 --------------------------------------------------------------------

 Structure from the checkpoint file:  frag2-conf0.chk
 ----------------------------
 Optimization for frag2-conf0
 ----------------------------
 Charge =  0 Multiplicity = 1

                         Standard orientation:
 ---------------------------------------------------------------------
 Center     Atomic      Atomic             Coordinates (Angstroms)
 Number     Number       Type             X           Y           Z
 ---------------------------------------------------------------------
      1          6           0        0.806129    2.237995   -0.067173
      2          6           0        4.038169    0.126733    0.409423
      3          6           0       -2.444600   -1.697222   -0.246827
      4          6           0        0.228228    0.851827    0.190719
      5          7           0        2.695104   -0.200413    0.914002
      6          7           0       -0.959959    0.587164   -0.577805
      7          8           0       -3.470079    0.729452   -0.602761
      8          8           0       -2.254857    0.200850    1.589987
      9          8           0        1.993193   -0.215520   -1.569883
     10          8           0        0.843173   -1.763317    0.123821
     11         16           0       -2.401505    0.057635    0.139048
     12         16           0        1.465336   -0.475086   -0.224420
     13          1           0        1.043202    2.369776   -1.127797
     14          1           0        0.072254    2.991918    0.234481
     15          1           0        1.718043    2.389596    0.516080
     16          1           0        3.975953    0.995375   -0.247408
     17          1           0        4.509404   -0.693144   -0.144843
     18          1           0        4.658327    0.385894    1.272150
     19          1           0       -3.317909   -2.113438    0.260835
     20          1           0       -2.538111   -1.808768   -1.328299
     21          1           0       -1.518277   -2.149588    0.110318
     22          1           0        0.014535    0.695420    1.251338
     23          1           0        2.688864   -0.985794    1.561426
     24          1           0       -1.132588    1.167013   -1.391864
 ---------------------------------------------------------------------

 SCF Done:  E(RB3LYP) =  -1366.29632981     A.U. after    1 cycles

 Isotropic polarizability for W=    0.000000      100.96 Bohr**3.
 End of Minotr Frequency-dependent properties file   721 does not exist.

                     1                      2                      3
                     A                      A                      A
 Frequencies --    34.7634                47.2398                52.5790
 Red. masses --     3.8599                 5.3003                 2.9719
 Frc consts  --     0.0027                 0.0070                 0.0048
 IR Inten    --     2.0143                 5.2909                 3.5825

                     4                      5                      6
                     A                      A                      A
 Frequencies --    88.2612               127.7120               158.2013
 Red. masses --     3.6644                 1.3239                 4.3668
 Frc consts  --     0.0168                 0.0127                 0.0644
 IR Inten    --     7.8836                 3.4332                 3.2502

                     7                      8                      9
                     A                      A                      A
 Frequencies --   178.0727               213.0214               221.1388
 Red. masses --     3.4938                 2.9616                 1.3180
 Frc consts  --     0.0653                 0.0792                 0.0380
 IR Inten    --     3.4754                 0.7907                 2.2092

                    10                     11                     12
                     A                      A                      A
 Frequencies --   238.3065               238.7230               250.7440
 Red. masses --     2.7911                 3.5743                 3.7965
 Frc consts  --     0.0934                 0.1200                 0.1406
 IR Inten    --    15.6884                 3.2430                 1.8633

                    13                     14                     15
                     A                      A                      A
 Frequencies --   258.1970               292.9520               325.7536
 Red. masses --     1.1761                 2.0012                 4.3144
 Frc consts  --     0.0462                 0.1012                 0.2697
 IR Inten    --     1.9381                16.8295                 7.8986

                    16                     17                     18
                     A                      A                      A
 Frequencies --   342.2672               379.4148               423.8429
 Red. masses --     2.3997                 3.6355                 8.2643
 Frc consts  --     0.1656                 0.3083                 0.8747
 IR Inten    --    16.5396                26.8744                 8.1582

                    19                     20                     21
                     A                      A                      A
 Frequencies --   462.1591               468.0176               491.4554
 Red. masses --     3.7525                 4.9813                 7.2244
 Frc consts  --     0.4722                 0.6429                 1.0281
 IR Inten    --    12.0166                47.4418                21.8750

                    22                     23                     24
                     A                      A                      A
 Frequencies --   524.1340               562.7837               631.6195
 Red. masses --     5.3306                 5.7364                 3.2596
 Frc consts  --     0.8628                 1.0705                 0.7662
 IR Inten    --    89.6997                25.3774               112.8510

                    25                     26                     27
                     A                      A                      A
 Frequencies --   695.3055               736.4601               833.6866
 Red. masses --     3.3418                 4.8013                 2.0570
 Frc consts  --     0.9519                 1.5343                 0.8423
 IR Inten    --    16.4993                12.3706               130.6868

                    28                     29                     30
                     A                      A                      A
 Frequencies --   838.6370               953.0188              1008.7558
 Red. masses --     3.2829                 2.1468                 1.3676
 Frc consts  --     1.3604                 1.1488                 0.8200
 IR Inten    --   195.6148                48.1877                29.2672

                    31                     32                     33
                     A                      A                      A
 Frequencies --  1019.1654              1053.0800              1071.4079
 Red. masses --     1.3558                 1.5576                 3.2840
 Frc consts  --     0.8297                 1.0177                 2.2211
 IR Inten    --    23.0529                10.9146                97.4940

                    34                     35                     36
                     A                      A                      A
 Frequencies --  1108.7941              1120.7274              1130.0593
 Red. masses --     9.0026                 2.3236                 9.2962
 Frc consts  --     6.5211                 1.7195                 6.9945
 IR Inten    --   145.5552                32.0029               154.6155

                    37                     38                     39
                     A                      A                      A
 Frequencies --  1148.9101              1158.6034              1190.3739
 Red. masses --     1.3727                 1.4534                 2.9116
 Frc consts  --     1.0676                 1.1495                 2.4308
 IR Inten    --     8.3284                 4.3410                96.4676

                    40                     41                     42
                     A                      A                      A
 Frequencies --  1285.2169              1323.0663              1327.0740
 Red. masses --     2.0845                 1.6060                 2.2932
 Frc consts  --     2.0286                 1.6564                 2.3795
 IR Inten    --    81.5813                20.0834               100.8745

                    43                     44                     45
                     A                      A                      A
 Frequencies --  1340.3263              1389.4195              1433.2401
 Red. masses --     3.3915                 1.2068                 1.2364
 Frc consts  --     3.5897                 1.3726                 1.4964
 IR Inten    --   147.2217                10.3873                15.9844

                    46                     47                     48
                     A                      A                      A
 Frequencies --  1439.5191              1450.7647              1479.6683
 Red. masses --     1.3089                 1.3560                 1.1388
 Frc consts  --     1.5980                 1.6815                 1.4691
 IR Inten    --    22.8492                84.7468                 5.0455

                    49                     50                     51
                     A                      A                      A
 Frequencies --  1483.0274              1490.1440              1517.9258
 Red. masses --     1.0773                 1.0501                 1.0476
 Frc consts  --     1.3960                 1.3738                 1.4221
 IR Inten    --     4.7530                 7.8353                 6.0977

                    52                     53                     54
                     A                      A                      A
 Frequencies --  1519.4067              1529.8701              1540.7070
 Red. masses --     1.0549                 1.0452                 1.0407
 Frc consts  --     1.4348                 1.4414                 1.4555
 IR Inten    --     7.7282                 7.3584                 7.3549

                    55                     56                     57
                     A                      A                      A
 Frequencies --  3058.5563              3068.0163              3087.1773
 Red. masses --     1.0384                 1.0350                 1.0291
 Frc consts  --     5.7234                 5.7397                 5.7786
 IR Inten    --    46.9542                 8.1333                 4.8948

                    58                     59                     60
                     A                      A                      A
 Frequencies --  3121.3329              3128.9629              3143.1542
 Red. masses --     1.0874                 1.1019                 1.1028
 Frc consts  --     6.2418                 6.3561                 6.4192
 IR Inten    --     8.6318                18.2767                 3.6696

                    61                     62                     63
                     A                      A                      A
 Frequencies --  3154.8884              3171.7305              3188.2909
 Red. masses --     1.1022                 1.1021                 1.1068
 Frc consts  --     6.4635                 6.5323                 6.6290
 IR Inten    --    10.5198                 9.0460                 0.4474

                    64                     65                     66
                     A                      A                      A
 Frequencies --  3201.8787              3534.1278              3589.0456
 Red. masses --     1.1086                 1.0753                 1.0769
 Frc consts  --     6.6964                 7.9127                 8.1728
 IR Inten    --     5.6777                29.2503                51.2224

 - Thermochemistry -
 -------------------
 Temperature   298.150 Kelvin.  Pressure   1.00000 Atm.
 Atom     1 has atomic number  6 and mass  12.00000

 Molecular mass:   216.02385 amu.
 Principal axes and moments of inertia in atomic units:
                           1         2         3
     Eigenvalues --  1183.870914292.735384628.46166
           X            0.99965   0.02341   0.01232
           Y           -0.02331   0.99969  -0.00841
           Z           -0.01251   0.00812   0.99989
 This molecule is an asymmetric top.
 Rotational symmetry number  1.
 Warning -- assumption of classical behavior for rotation
           may cause significant error
 Rotational temperatures (Kelvin)      0.07316     0.02018     0.01871
 Rotational constants (GHZ):           1.52444     0.42042     0.38992
 Zero-point vibrational energy     490916.8 (Joules/Mol)
                                  117.33194 (Kcal/Mol)
 Warning -- explicit consideration of  23 degrees of freedom as
           vibrations may cause significant error
 Vibrational temperatures:     50.02    67.97    75.65   126.99   183.75
          (Kelvin)            227.62   256.21   306.49   318.17   342.87
                              343.47   360.76   371.49   421.49   468.69
                              492.45   545.89   609.81   664.94   673.37
                              707.09   754.11   809.72   908.76  1000.39
                             1059.60  1199.49  1206.61  1371.18  1451.37
                             1466.35  1515.15  1541.52  1595.31  1612.47
                             1625.90  1653.02  1666.97  1712.68  1849.14
                             1903.59  1909.36  1928.43  1999.06  2062.11
                             2071.14  2087.32  2128.91  2133.74  2143.98
                             2183.95  2186.08  2201.14  2216.73  4400.57
                             4414.19  4441.75  4490.90  4501.87  4522.29
                             4539.18  4563.41  4587.23  4606.78  5084.82
                             5163.83

 Zero-point correction=                           0.186980 (Hartree/Particle)
 Thermal correction to Energy=                    0.201871
 Thermal correction to Enthalpy=                  0.202815
 Thermal correction to Gibbs Free Energy=         0.144461
 Sum of electronic and zero-point Energies=          -1366.109349
 Sum of electronic and thermal Energies=             -1366.094459
 Sum of electronic and thermal Enthalpies=           -1366.093514
 Sum of electronic and thermal Free Energies=        -1366.151868

                     E (Thermal)             CV                S
                      KCal/Mol        Cal/Mol-Kelvin    Cal/Mol-Kelvin
 Total                  126.676             52.780            122.816
 Electronic               0.000              0.000              0.000
 Translational            0.889              2.981             42.014
 Rotational               0.889              2.981             31.531
 Vibrational            124.899             46.819             49.271
 Vibration     1          0.594              1.983              5.537
 Vibration     2          0.595              1.979              4.930
 Vibration     3          0.596              1.977              4.718
 Vibration     4          0.601              1.957              3.698
 Vibration     5          0.611              1.925              2.980
 Vibration     6          0.621              1.893              2.571
 Vibration     7          0.629              1.869              2.349
 Vibration     8          0.644              1.821              2.018
 Vibration     9          0.648              1.809              1.950
 Vibration    10          0.656              1.782              1.815
 Vibration    11          0.657              1.781              1.812
 Vibration    12          0.663              1.762              1.725
 Vibration    13          0.667              1.749              1.674
 Vibration    14          0.688              1.687              1.457
 Vibration    15          0.710              1.624              1.281
 Vibration    16          0.721              1.591              1.202
 Vibration    17          0.749              1.514              1.041
 Vibration    18          0.786              1.418              0.879
 Vibration    19          0.820              1.334              0.760
 Vibration    20          0.825              1.321              0.743
 Vibration    21          0.847              1.269              0.680
 Vibration    22          0.879              1.197              0.600
 Vibration    23          0.919              1.112              0.518

 Normal termination of Gaussian 09 at Mon Feb 26 22:36:06 2018.
