 Gaussian 09, Revision C.01,
 Gaussian 09:  AM64L-G09RevC.01 23-Sep-2011

 ----------------------------------------------------------------------
 #HF/6-31G* Geom=AllCheck Guess=Read Pop=(MK,ReadRadii) Integral=(Grid=
 UltraFine) iop(6/33=2)
 ----------------------------------------------------------------------

 Structure from the checkpoint file:  frag2-conf0.chk
 ----------------------------
 Optimization for frag2-conf0
 ----------------------------
 Charge =  0 Multiplicity = 1

                         Standard orientation:
 ---------------------------------------------------------------------
 Center     Atomic      Atomic             Coordinates (Angstroms)
 Number     Number       Type             X           Y           Z
 ---------------------------------------------------------------------
      1          6           0        0.806129    2.237995   -0.067173
      2          6           0        4.038169    0.126733    0.409423
      3          6           0       -2.444600   -1.697222   -0.246827
      4          6           0        0.228228    0.851827    0.190719
      5          7           0        2.695104   -0.200413    0.914002
      6          7           0       -0.959959    0.587164   -0.577805
      7          8           0       -3.470079    0.729452   -0.602761
      8          8           0       -2.254857    0.200850    1.589987
      9          8           0        1.993193   -0.215520   -1.569883
     10          8           0        0.843173   -1.763317    0.123821
     11         16           0       -2.401505    0.057635    0.139048
     12         16           0        1.465336   -0.475086   -0.224420
     13          1           0        1.043202    2.369776   -1.127797
     14          1           0        0.072254    2.991918    0.234481
     15          1           0        1.718043    2.389596    0.516080
     16          1           0        3.975953    0.995375   -0.247408
     17          1           0        4.509404   -0.693144   -0.144843
     18          1           0        4.658327    0.385894    1.272150
     19          1           0       -3.317909   -2.113438    0.260835
     20          1           0       -2.538111   -1.808768   -1.328299
     21          1           0       -1.518277   -2.149588    0.110318
     22          1           0        0.014535    0.695420    1.251338
     23          1           0        2.688864   -0.985794    1.561426
     24          1           0       -1.132588    1.167013   -1.391864
 ---------------------------------------------------------------------

 SCF Done:  E(RHF) =  -1361.66436385     A.U. after   13 cycles

 The electronic state is 1-A.
 Alpha  occ. eigenvalues --  -92.22216 -92.21372 -20.57070 -20.57055 -20.56745
 Alpha  occ. eigenvalues --  -20.56510 -15.62581 -15.62211 -11.34001 -11.28643
 Alpha  occ. eigenvalues --  -11.27332 -11.25987  -9.19292  -9.18662  -6.87904
 Alpha  occ. eigenvalues --   -6.87868  -6.87740  -6.87223  -6.87218  -6.87080
 Alpha  occ. eigenvalues --   -1.46456  -1.46003  -1.34614  -1.34535  -1.26054
 Alpha  occ. eigenvalues --   -1.23959  -1.07435  -1.02886  -0.97487  -0.91958
 Alpha  occ. eigenvalues --   -0.85775  -0.82717  -0.74131  -0.72026  -0.71258
 Alpha  occ. eigenvalues --   -0.69326  -0.67800  -0.66725  -0.64402  -0.64227
 Alpha  occ. eigenvalues --   -0.61148  -0.60710  -0.59980  -0.59637  -0.58741
 Alpha  occ. eigenvalues --   -0.57265  -0.55368  -0.52547  -0.51717  -0.50352
 Alpha  occ. eigenvalues --   -0.50197  -0.48972  -0.47826  -0.47319  -0.46390
 Alpha  occ. eigenvalues --   -0.43844  -0.41859
 Alpha virt. eigenvalues --    0.18748   0.20137   0.22517   0.22946   0.23393
 Alpha virt. eigenvalues --    0.24022   0.24642   0.24732   0.25752   0.27062
 Alpha virt. eigenvalues --    0.27086   0.28027   0.29244   0.29487   0.31190

 Mulliken atomic charges:
              1
     1  C   -0.533764
     2  C   -0.300932
     3  C   -0.715592
     4  C   -0.178856
     5  N   -0.893665
     6  N   -0.911151
     7  O   -0.682383
     8  O   -0.690906
     9  O   -0.700053
    10  O   -0.713442
    11  S    1.608157
    12  S    1.649726
    13  H    0.205617
    14  H    0.211727
    15  H    0.206048
    16  H    0.203909
    17  H    0.191405
    18  H    0.190458
    19  H    0.229341
    20  H    0.226951
    21  H    0.279325
    22  H    0.281534
    23  H    0.407295
    24  H    0.429253
 Sum of Mulliken atomic charges =   0.00000

 Dipole moment (field-independent basis, Debye):
    X=              4.2253    Y=              0.6377    Z=              0.7705  Tot=              4.3420
 Quadrupole moment (field-independent basis, Debye-Ang):
   XX=            -87.5083   YY=            -83.2293   ZZ=            -92.9841
   XY=             10.5819   XZ=             11.3398   YZ=             -2.9901

 Normal termination of Gaussian 09 at Mon Feb 26 23:18:23 2018.
