 Gaussian 09, Revision C.01,
 Gaussian 09:  AM64L-G09RevC.01 23-Sep-2011

 ----------------------------------------------------------------------
 #HF/6-31G* Geom=AllCheck Guess=Read Pop=(MK,ReadRadii) Integral=(Grid=
 UltraFine) iop(6/33=2)
 ----------------------------------------------------------------------

 Structure from the checkpoint file:  frag54-conf2.chk
 -----------------------------
 Optimization for frag54-conf2
 -----------------------------
 Charge =  0 Multiplicity = 1

                         Standard orientation:
 ---------------------------------------------------------------------
 Center     Atomic      Atomic             Coordinates (Angstroms)
 Number     Number       Type             X           Y           Z
 ---------------------------------------------------------------------
      1          6           0        2.330527   -1.961843    0.418409
      2          6           0        1.024165   -2.194079   -0.029120
      3          6           0        2.832639   -0.669679    0.489861
      4          6           0        0.720873    0.189739   -0.341838
      5          6           0        0.218299   -1.120367   -0.408144
      6          6           0        2.024666    0.414146    0.106992
      7          6           0       -2.778215    0.339263    0.038156
      8          6           0       -3.748423    0.660820    1.165927
      9          6           0        1.841681    2.778559   -0.181003
     10          6           0       -1.207132   -1.343388   -0.880409
     11          7           0       -2.222133   -0.909368    0.079536
     12          8           0       -2.529877    1.149755   -0.849374
     13          8           0        2.605605    1.645461    0.205259
     14          1           0        2.959933   -2.798033    0.711757
     15          1           0        0.639742   -3.209760   -0.086571
     16          1           0        3.843188   -0.469198    0.831927
     17          1           0        0.077258    1.007766   -0.645029
     18          1           0       -3.339002    1.482759    1.762425
     19          1           0       -4.687712    1.011811    0.729071
     20          1           0       -3.956783   -0.186839    1.826287
     21          1           0        2.490114    3.642711   -0.024799
     22          1           0        0.937899    2.885356    0.432725
     23          1           0        1.550669    2.727731   -1.238126
     24          1           0       -1.401085   -0.778514   -1.795625
     25          1           0       -1.371375   -2.405070   -1.094226
     26          1           0       -2.348213   -1.465902    0.913367
 ---------------------------------------------------------------------

 SCF Done:  E(RHF) =  -590.431548106     A.U. after   14 cycles

 The electronic state is 1-A.
 Alpha  occ. eigenvalues --  -20.58456 -20.52326 -15.59255 -11.35722 -11.29737
 Alpha  occ. eigenvalues --  -11.27990 -11.27125 -11.24374 -11.24153 -11.23803
 Alpha  occ. eigenvalues --  -11.22668 -11.22514 -11.22326  -1.40051  -1.37443
 Alpha  occ. eigenvalues --   -1.23024  -1.14255  -1.04462  -1.00853  -1.00226
 Alpha  occ. eigenvalues --   -0.94367  -0.91640  -0.81445  -0.80437  -0.78192
 Alpha  occ. eigenvalues --   -0.70834  -0.69019  -0.66064  -0.65532  -0.64874
 Alpha  occ. eigenvalues --   -0.64407  -0.62049  -0.60749  -0.58532  -0.57799
 Alpha  occ. eigenvalues --   -0.57097  -0.55847  -0.54138  -0.52492  -0.51515
 Alpha  occ. eigenvalues --   -0.50598  -0.49852  -0.47825  -0.45748  -0.42048
 Alpha  occ. eigenvalues --   -0.39022  -0.32882  -0.30491
 Alpha virt. eigenvalues --    0.13617   0.16050   0.19395   0.21519   0.24702
 Alpha virt. eigenvalues --    0.25569   0.26799   0.28504   0.29951   0.31208
 Alpha virt. eigenvalues --    0.31342   0.32131   0.32382   0.32787   0.33660

 Mulliken atomic charges:
              1
     1  C   -0.182220
     2  C   -0.255878
     3  C   -0.252278
     4  C   -0.325054
     5  C    0.043999
     6  C    0.442631
     7  C    0.764764
     8  C   -0.575633
     9  C   -0.189129
    10  C   -0.167401
    11  N   -0.788473
    12  O   -0.636241
    13  O   -0.663502
    14  H    0.203681
    15  H    0.191437
    16  H    0.216228
    17  H    0.257022
    18  H    0.205469
    19  H    0.211122
    20  H    0.169122
    21  H    0.189161
    22  H    0.166893
    23  H    0.169733
    24  H    0.233334
    25  H    0.187348
    26  H    0.383866
 Sum of Mulliken atomic charges =   0.00000

 Dipole moment (field-independent basis, Debye):
    X=             -1.3645    Y=             -1.9022    Z=              2.2076  Tot=              3.2177
 Quadrupole moment (field-independent basis, Debye-Ang):
   XX=            -76.3419   YY=            -69.5012   ZZ=            -78.8904
   XY=              4.6306   XZ=             -7.3517   YZ=              0.5605

 Normal termination of Gaussian 09 at Sat Feb 17 21:07:31 2018.
