 Gaussian 09, Revision C.01,
 Gaussian 09:  AM64L-G09RevC.01 23-Sep-2011

 ---------------------------------------------------------
 #B3LYP/6-31G* Integral=(Grid=UltraFine) freq Opt pop=none
 ---------------------------------------------------------

 99/9=1/99;
 -----------------------------
 Optimization for frag54-conf2
 -----------------------------
 Charge =  0 Multiplicity = 1

 SCF Done:  E(RB3LYP) =  -594.096152522     A.U. after   15 cycles
 SCF Done:  E(RB3LYP) =  -594.099057425     A.U. after   12 cycles
 SCF Done:  E(RB3LYP) =  -594.099420332     A.U. after   12 cycles
 SCF Done:  E(RB3LYP) =  -594.099447985     A.U. after   12 cycles
 SCF Done:  E(RB3LYP) =  -594.099637944     A.U. after   11 cycles
 SCF Done:  E(RB3LYP) =  -594.099685934     A.U. after   11 cycles
 SCF Done:  E(RB3LYP) =  -594.099707670     A.U. after   11 cycles
 SCF Done:  E(RB3LYP) =  -594.099721400     A.U. after    9 cycles
 SCF Done:  E(RB3LYP) =  -594.099756631     A.U. after   11 cycles
 SCF Done:  E(RB3LYP) =  -594.099775279     A.U. after   10 cycles
 SCF Done:  E(RB3LYP) =  -594.099793693     A.U. after   10 cycles
 SCF Done:  E(RB3LYP) =  -594.099810133     A.U. after   11 cycles
 SCF Done:  E(RB3LYP) =  -594.099816172     A.U. after   10 cycles
 SCF Done:  E(RB3LYP) =  -594.099817088     A.U. after    9 cycles
 SCF Done:  E(RB3LYP) =  -594.099817247     A.U. after    8 cycles
 SCF Done:  E(RB3LYP) =  -594.099817337     A.U. after    8 cycles
 SCF Done:  E(RB3LYP) =  -594.099817360     A.U. after    7 cycles
 Optimization completed.
    -- Stationary point found.
 Normal termination of Gaussian 09 at Fri Feb 16 22:04:29 2018.

 --------------------------------------------------------------------
 #N Geom=AllCheck Guess=TCheck SCRF=Check GenChk RB3LYP/6-31G(d) Freq
 --------------------------------------------------------------------

 Structure from the checkpoint file:  frag54-conf2.chk
 -----------------------------
 Optimization for frag54-conf2
 -----------------------------
 Charge =  0 Multiplicity = 1

                         Standard orientation:
 ---------------------------------------------------------------------
 Center     Atomic      Atomic             Coordinates (Angstroms)
 Number     Number       Type             X           Y           Z
 ---------------------------------------------------------------------
      1          6           0        2.330527   -1.961843    0.418409
      2          6           0        1.024165   -2.194079   -0.029120
      3          6           0        2.832639   -0.669679    0.489861
      4          6           0        0.720873    0.189739   -0.341838
      5          6           0        0.218299   -1.120367   -0.408144
      6          6           0        2.024666    0.414146    0.106992
      7          6           0       -2.778215    0.339263    0.038156
      8          6           0       -3.748423    0.660820    1.165927
      9          6           0        1.841681    2.778559   -0.181003
     10          6           0       -1.207132   -1.343388   -0.880409
     11          7           0       -2.222133   -0.909368    0.079536
     12          8           0       -2.529877    1.149755   -0.849374
     13          8           0        2.605605    1.645461    0.205259
     14          1           0        2.959933   -2.798033    0.711757
     15          1           0        0.639742   -3.209760   -0.086571
     16          1           0        3.843188   -0.469198    0.831927
     17          1           0        0.077258    1.007766   -0.645029
     18          1           0       -3.339002    1.482759    1.762425
     19          1           0       -4.687712    1.011811    0.729071
     20          1           0       -3.956783   -0.186839    1.826287
     21          1           0        2.490114    3.642711   -0.024799
     22          1           0        0.937899    2.885356    0.432725
     23          1           0        1.550669    2.727731   -1.238126
     24          1           0       -1.401085   -0.778514   -1.795625
     25          1           0       -1.371375   -2.405070   -1.094226
     26          1           0       -2.348213   -1.465902    0.913367
 ---------------------------------------------------------------------

 SCF Done:  E(RB3LYP) =  -594.099817360     A.U. after    1 cycles

 Isotropic polarizability for W=    0.000000      113.66 Bohr**3.
 End of Minotr Frequency-dependent properties file   721 does not exist.

                     1                      2                      3
                     A                      A                      A
 Frequencies --    29.2028                43.0657                57.6414
 Red. masses --     3.4115                 1.8127                 3.6904
 Frc consts  --     0.0017                 0.0020                 0.0072
 IR Inten    --     3.0076                 0.6419                13.3447

                     4                      5                      6
                     A                      A                      A
 Frequencies --    67.1928                98.1814               161.2870
 Red. masses --     1.8852                 3.2523                 4.3175
 Frc consts  --     0.0050                 0.0185                 0.0662
 IR Inten    --     3.1958                 3.7388                 1.9041

                     7                      8                      9
                     A                      A                      A
 Frequencies --   181.9568               218.3635               272.9184
 Red. masses --     3.5077                 1.8939                 3.0782
 Frc consts  --     0.0684                 0.0532                 0.1351
 IR Inten    --     2.6364                 1.7001                 2.8571

                    10                     11                     12
                     A                      A                      A
 Frequencies --   276.9569               306.9533               355.5768
 Red. masses --     1.8730                 3.7513                 2.2806
 Frc consts  --     0.0846                 0.2082                 0.1699
 IR Inten    --     0.7420                 0.0448                 3.3143

                    13                     14                     15
                     A                      A                      A
 Frequencies --   438.3496               458.6004               463.1941
 Red. masses --     3.1280                 1.3076                 3.9840
 Frc consts  --     0.3541                 0.1620                 0.5036
 IR Inten    --     4.8924               106.6421                 0.2671

                    16                     17                     18
                     A                      A                      A
 Frequencies --   483.0882               546.1050               562.5751
 Red. masses --     3.1765                 4.4338                 4.8642
 Frc consts  --     0.4368                 0.7791                 0.9070
 IR Inten    --    15.0442                 9.2124                 6.2306

                    19                     20                     21
                     A                      A                      A
 Frequencies --   611.7119               625.7274               668.1362
 Red. masses --     4.1495                 2.6175                 3.7480
 Frc consts  --     0.9148                 0.6038                 0.9858
 IR Inten    --     5.7484                 4.2146                 1.0222

                    22                     23                     24
                     A                      A                      A
 Frequencies --   715.9636               752.8902               804.8173
 Red. masses --     2.7880                 3.4600                 1.6102
 Frc consts  --     0.8420                 1.1556                 0.6145
 IR Inten    --     9.8218                27.5466                27.4283

                    25                     26                     27
                     A                      A                      A
 Frequencies --   855.9745               892.5953               909.5704
 Red. masses --     2.6583                 1.4045                 1.4366
 Frc consts  --     1.1476                 0.6593                 0.7003
 IR Inten    --     2.0928                 0.8136                21.5772

                    28                     29                     30
                     A                      A                      A
 Frequencies --   953.7385               968.2624              1001.4262
 Red. masses --     3.6107                 1.2566                 1.7146
 Frc consts  --     1.9351                 0.6941                 1.0131
 IR Inten    --     2.4330                 0.3871                 5.0148

                    31                     32                     33
                     A                      A                      A
 Frequencies --  1011.8714              1039.2585              1067.8469
 Red. masses --     5.8230                 2.5636                 1.7153
 Frc consts  --     3.5127                 1.6314                 1.1524
 IR Inten    --     1.8605                 0.6851                 8.3404

                    34                     35                     36
                     A                      A                      A
 Frequencies --  1080.5298              1099.1335              1117.5327
 Red. masses --     4.6735                 2.9735                 1.5910
 Frc consts  --     3.2149                 2.1165                 1.1707
 IR Inten    --    35.0366                17.0531                 5.0471

                    37                     38                     39
                     A                      A                      A
 Frequencies --  1183.5929              1193.8091              1205.8316
 Red. masses --     1.2722                 1.1668                 1.6793
 Frc consts  --     1.0500                 0.9798                 1.4386
 IR Inten    --     0.7804                 3.8664                34.2266

                    40                     41                     42
                     A                      A                      A
 Frequencies --  1225.3048              1268.7543              1293.4558
 Red. masses --     1.5397                 1.4545                 1.7868
 Frc consts  --     1.3620                 1.3795                 1.7613
 IR Inten    --     2.3316                17.7846               135.0824

                    43                     44                     45
                     A                      A                      A
 Frequencies --  1308.7941              1351.1521              1380.0194
 Red. masses --     4.2199                 1.3767                 3.2867
 Frc consts  --     4.2589                 1.4808                 3.6879
 IR Inten    --   190.6879                 4.0177                28.7562

                    46                     47                     48
                     A                      A                      A
 Frequencies --  1401.1155              1425.8522              1483.9668
 Red. masses --     1.4027                 1.2626                 1.9238
 Frc consts  --     1.6224                 1.5123                 2.4960
 IR Inten    --    20.8980                23.0121                41.2979

                    49                     50                     51
                     A                      A                      A
 Frequencies --  1499.7397              1501.7924              1509.3393
 Red. masses --     1.0919                 1.0759                 1.4883
 Frc consts  --     1.4469                 1.4296                 1.9976
 IR Inten    --    18.6362                 0.7581                 1.8531

                    52                     53                     54
                     A                      A                      A
 Frequencies --  1515.4898              1520.7103              1532.4011
 Red. masses --     1.0676                 1.0474                 1.1570
 Frc consts  --     1.4447                 1.4272                 1.6008
 IR Inten    --    17.7130                 5.7626                66.0494

                    55                     56                     57
                     A                      A                      A
 Frequencies --  1546.3254              1557.5949              1652.5147
 Red. masses --     2.0299                 1.8883                 6.0053
 Frc consts  --     2.8598                 2.6992                 9.6622
 IR Inten    --    45.9395               172.1384                19.7826

                    58                     59                     60
                     A                      A                      A
 Frequencies --  1660.1195              1773.7379              3030.7416
 Red. masses --     5.4496                 8.8964                 1.0341
 Frc consts  --     8.8490                16.4908                 5.5962
 IR Inten    --    99.3988               194.3151                43.3157

                    61                     62                     63
                     A                      A                      A
 Frequencies --  3063.7929              3072.5814              3090.9496
 Red. masses --     1.0357                 1.0646                 1.1068
 Frc consts  --     5.7281                 5.9218                 6.2300
 IR Inten    --     8.6192                33.5509                38.5162

                    64                     65                     66
                     A                      A                      A
 Frequencies --  3134.9229              3135.6025              3145.8869
 Red. masses --     1.1015                 1.1015                 1.1021
 Frc consts  --     6.3779                 6.3807                 6.4264
 IR Inten    --     1.4983                15.3427                11.0895

                    67                     68                     69
                     A                      A                      A
 Frequencies --  3156.9035              3177.1109              3194.8796
 Red. masses --     1.1007                 1.0870                 1.0918
 Frc consts  --     6.4633                 6.4645                 6.5661
 IR Inten    --    28.9370                 8.4055                25.1274

                    70                     71                     72
                     A                      A                      A
 Frequencies --  3215.9149              3229.4212              3621.2988
 Red. masses --     1.0942                 1.0903                 1.0775
 Frc consts  --     6.6676                 6.6996                 8.3255
 IR Inten    --    11.4891                 2.6184                15.2178

 - Thermochemistry -
 -------------------
 Temperature   298.150 Kelvin.  Pressure   1.00000 Atm.
 Atom     1 has atomic number  6 and mass  12.00000

 Molecular mass:   179.09463 amu.
 Principal axes and moments of inertia in atomic units:
                           1         2         3
     Eigenvalues --  1595.783193514.917694665.19135
           X            0.99990   0.00519  -0.01278
           Y           -0.00516   0.99998   0.00218
           Z            0.01279  -0.00211   0.99992
 This molecule is an asymmetric top.
 Rotational symmetry number  1.
 Warning -- assumption of classical behavior for rotation
           may cause significant error
 Rotational temperatures (Kelvin)      0.05428     0.02464     0.01857
 Rotational constants (GHZ):           1.13094     0.51345     0.38685
 Zero-point vibrational energy     570975.3 (Joules/Mol)
                                  136.46637 (Kcal/Mol)
 Warning -- explicit consideration of  19 degrees of freedom as
           vibrations may cause significant error
 Vibrational temperatures:     42.02    61.96    82.93    96.68   141.26
          (Kelvin)            232.06   261.79   314.18   392.67   398.48
                              441.64   511.60   630.69   659.82   666.43
                              695.06   785.72   809.42   880.12   900.28
                              961.30  1030.11  1083.24  1157.95  1231.55
                             1284.24  1308.67  1372.22  1393.11  1440.83
                             1455.86  1495.26  1536.39  1554.64  1581.41
                             1607.88  1702.92  1717.62  1734.92  1762.94
                             1825.45  1860.99  1883.06  1944.00  1985.54
                             2015.89  2051.48  2135.09  2157.79  2160.74
                             2171.60  2180.45  2187.96  2204.78  2224.81
                             2241.03  2377.60  2388.54  2552.01  4360.56
                             4408.11  4420.75  4447.18  4510.45  4511.43
                             4526.22  4542.07  4571.15  4596.71  4626.98
                             4646.41  5210.23

 Zero-point correction=                           0.217473 (Hartree/Particle)
 Thermal correction to Energy=                    0.230550
 Thermal correction to Enthalpy=                  0.231494
 Thermal correction to Gibbs Free Energy=         0.176144
 Sum of electronic and zero-point Energies=           -593.882344
 Sum of electronic and thermal Energies=              -593.869268
 Sum of electronic and thermal Enthalpies=            -593.868324
 Sum of electronic and thermal Free Energies=         -593.923674

                     E (Thermal)             CV                S
                      KCal/Mol        Cal/Mol-Kelvin    Cal/Mol-Kelvin
 Total                  144.672             47.804            116.494
 Electronic               0.000              0.000              0.000
 Translational            0.889              2.981             41.455
 Rotational               0.889              2.981             31.637
 Vibrational            142.895             41.842             43.402
 Vibration     1          0.593              1.984              5.883
 Vibration     2          0.595              1.980              5.113
 Vibration     3          0.596              1.974              4.536
 Vibration     4          0.598              1.970              4.234
 Vibration     5          0.604              1.950              3.490
 Vibration     6          0.622              1.890              2.535
 Vibration     7          0.630              1.864              2.308
 Vibration     8          0.646              1.813              1.973
 Vibration     9          0.676              1.723              1.578
 Vibration    10          0.678              1.716              1.552
 Vibration    11          0.697              1.660              1.379
 Vibration    12          0.731              1.564              1.141
 Vibration    13          0.799              1.387              0.832
 Vibration    14          0.817              1.342              0.770
 Vibration    15          0.821              1.332              0.757
 Vibration    16          0.839              1.288              0.702
 Vibration    17          0.901              1.148              0.552
 Vibration    18          0.918              1.112              0.519
 Vibration    19          0.971              1.007              0.430

 Optimization completed.
    -- Stationary point found.
 Normal termination of Gaussian 09 at Fri Feb 16 22:25:21 2018.
