 Gaussian 09, Revision C.01,
 Gaussian 09:  AM64L-G09RevC.01 23-Sep-2011

 ---------------------------------------------------------
 #B3LYP/6-31G* Integral=(Grid=UltraFine) freq Opt pop=none
 ---------------------------------------------------------

 99/9=1/99;
 -----------------------------
 Optimization for frag29-conf0
 -----------------------------
 Charge =  0 Multiplicity = 1

 SCF Done:  E(RB3LYP) =  -955.209670854     A.U. after   15 cycles
 SCF Done:  E(RB3LYP) =  -955.212289211     A.U. after   12 cycles
 SCF Done:  E(RB3LYP) =  -955.212561514     A.U. after   11 cycles
 SCF Done:  E(RB3LYP) =  -955.212604659     A.U. after   10 cycles
 SCF Done:  E(RB3LYP) =  -955.212614219     A.U. after    9 cycles
 SCF Done:  E(RB3LYP) =  -955.212632218     A.U. after    9 cycles
 SCF Done:  E(RB3LYP) =  -955.212665303     A.U. after   10 cycles
 SCF Done:  E(RB3LYP) =  -955.212719774     A.U. after   11 cycles
 SCF Done:  E(RB3LYP) =  -955.212750487     A.U. after   10 cycles
 SCF Done:  E(RB3LYP) =  -955.212758686     A.U. after   10 cycles
 SCF Done:  E(RB3LYP) =  -955.212758976     A.U. after    8 cycles
 SCF Done:  E(RB3LYP) =  -955.212759029     A.U. after    7 cycles
 Optimization completed.
    -- Stationary point found.
 Normal termination of Gaussian 09 at Fri Feb 16 20:06:38 2018.

 --------------------------------------------------------------------
 #N Geom=AllCheck Guess=TCheck SCRF=Check GenChk RB3LYP/6-31G(d) Freq
 --------------------------------------------------------------------

 Structure from the checkpoint file:  frag29-conf0.chk
 -----------------------------
 Optimization for frag29-conf0
 -----------------------------
 Charge =  0 Multiplicity = 1

                         Standard orientation:
 ---------------------------------------------------------------------
 Center     Atomic      Atomic             Coordinates (Angstroms)
 Number     Number       Type             X           Y           Z
 ---------------------------------------------------------------------
      1          6           0       -2.509408    1.358592   -0.001220
      2          6           0       -1.347008   -0.755208    0.001219
      3          6           0       -1.259730    1.969991   -0.000342
      4          6           0       -2.535399   -0.036679   -0.000376
      5          6           0       -0.142625   -0.038214    0.001831
      6          6           0        3.575890   -0.325328   -0.000795
      7          6           0        4.655105    0.747650   -0.002243
      8          6           0        1.176833   -0.786359    0.003780
      9          7           0       -0.099740    1.299503    0.001130
     10          7           0        2.292622    0.130072    0.003685
     11          8           0        3.841816   -1.523212   -0.003164
     12         17           0       -4.068381   -0.881783   -0.001325
     13          1           0       -3.423542    1.940858   -0.002468
     14          1           0       -1.350472   -1.840222    0.001931
     15          1           0       -1.185522    3.055488   -0.000938
     16          1           0        5.291583    0.609893    0.877366
     17          1           0        5.287011    0.612147   -0.885496
     18          1           0        4.260478    1.768534    0.000146
     19          1           0        1.227696   -1.448725    0.879814
     20          1           0        1.229623   -1.450639   -0.870636
     21          1           0        2.058977    1.114981    0.003302
 ---------------------------------------------------------------------

 SCF Done:  E(RB3LYP) =  -955.212759029     A.U. after    1 cycles

 Isotropic polarizability for W=    0.000000      107.42 Bohr**3.
 End of Minotr Frequency-dependent properties file   721 does not exist.

                     1                      2                      3
                     A                      A                      A
 Frequencies --    18.5986                39.9994                56.0784
 Red. masses --     4.1408                 4.2455                 1.1540
 Frc consts  --     0.0008                 0.0040                 0.0021
 IR Inten    --     0.1085                 1.8795                 2.6215

                     4                      5                      6
                     A                      A                      A
 Frequencies --    89.2802               153.2843               175.1893
 Red. masses --     5.6956                 4.4533                 2.9189
 Frc consts  --     0.0267                 0.0616                 0.0528
 IR Inten    --     5.8262                 2.6666                 4.6318

                     7                      8                      9
                     A                      A                      A
 Frequencies --   214.7112               215.3413               237.0096
 Red. masses --     6.0497                 4.0940                 9.4467
 Frc consts  --     0.1643                 0.1119                 0.3127
 IR Inten    --     4.3767                 5.7873                 1.9393

                    10                     11                     12
                     A                      A                      A
 Frequencies --   359.1076               416.2309               441.8985
 Red. masses --     4.4258                 9.2760                 2.6884
 Frc consts  --     0.3363                 0.9468                 0.3093
 IR Inten    --     0.6005                 6.4672                 9.3551

                    13                     14                     15
                     A                      A                      A
 Frequencies --   486.5960               494.8796               556.2118
 Red. masses --     3.6905                 1.3350                 4.1226
 Frc consts  --     0.5148                 0.1926                 0.7515
 IR Inten    --    17.3996                58.0138                12.7250

                    16                     17                     18
                     A                      A                      A
 Frequencies --   602.0394               646.4089               656.1261
 Red. masses --     5.4239                 1.9331                 4.5528
 Frc consts  --     1.1583                 0.4759                 1.1548
 IR Inten    --     3.7505                 3.1173                 0.2447

                    19                     20                     21
                     A                      A                      A
 Frequencies --   721.5994               732.9672               839.1480
 Red. masses --     7.5083                 3.9290                 1.2967
 Frc consts  --     2.3035                 1.2437                 0.5380
 IR Inten    --    34.7211                 1.5041                24.4687

                    22                     23                     24
                     A                      A                      A
 Frequencies --   878.9685               888.2482               976.3977
 Red. masses --     5.3341                 1.3052                 1.3639
 Frc consts  --     2.4281                 0.6067                 0.7661
 IR Inten    --    41.1587                 4.8681                 0.2942

                    25                     26                     27
                     A                      A                      A
 Frequencies --   988.8145              1009.2632              1014.0578
 Red. masses --     3.9301                 2.0879                 3.9052
 Frc consts  --     2.2640                 1.2530                 2.3660
 IR Inten    --    17.9512                13.6830                 2.0244

                    28                     29                     30
                     A                      A                      A
 Frequencies --  1020.2859              1070.2717              1125.9231
 Red. masses --     1.8713                 1.7060                 1.8912
 Frc consts  --     1.1477                 1.1514                 1.4125
 IR Inten    --     0.9098                 9.5420                29.7321

                    31                     32                     33
                     A                      A                      A
 Frequencies --  1133.7944              1161.1347              1233.1585
 Red. masses --     1.6264                 3.8823                 2.0942
 Frc consts  --     1.2318                 3.0839                 1.8763
 IR Inten    --     1.9334                 0.0227                 7.9203

                    34                     35                     36
                     A                      A                      A
 Frequencies --  1253.0579              1276.6039              1312.5379
 Red. masses --     1.0752                 1.7548                 8.4357
 Frc consts  --     0.9946                 1.6850                 8.5624
 IR Inten    --     0.0081                27.5264                 4.9160

                    37                     38                     39
                     A                      A                      A
 Frequencies --  1327.0510              1375.6664              1425.3633
 Red. masses --     1.5376                 1.6680                 1.2956
 Frc consts  --     1.5954                 1.8598                 1.5508
 IR Inten    --     0.2471                 2.6278                13.7764

                    40                     41                     42
                     A                      A                      A
 Frequencies --  1444.3299              1502.2160              1512.4620
 Red. masses --     2.7955                 1.0458                 1.1329
 Frc consts  --     3.4360                 1.3905                 1.5269
 IR Inten    --    40.6241                 5.1128                36.7641

                    43                     44                     45
                     A                      A                      A
 Frequencies --  1515.5084              1531.4961              1547.7839
 Red. masses --     1.8181                 1.2015                 2.2239
 Frc consts  --     2.4602                 1.6604                 3.1390
 IR Inten    --   115.7919                 6.3823               517.5909

                    46                     47                     48
                     A                      A                      A
 Frequencies --  1612.7966              1637.1968              1778.2669
 Red. masses --     7.1635                 6.1539                 9.5378
 Frc consts  --    10.9783                 9.7186                17.7703
 IR Inten    --    75.9484               122.7836               257.4185

                    49                     50                     51
                     A                      A                      A
 Frequencies --  3028.9551              3046.2235              3063.9504
 Red. masses --     1.0588                 1.1035                 1.0354
 Frc consts  --     5.7231                 6.0333                 5.7267
 IR Inten    --    19.7950                15.9280                 8.4539

                    52                     53                     54
                     A                      A                      A
 Frequencies --  3139.2246              3140.1956              3186.0939
 Red. masses --     1.1011                 1.1042                 1.0903
 Frc consts  --     6.3930                 6.4150                 6.5208
 IR Inten    --     7.5845                20.9721                20.5326

                    55                     56                     57
                     A                      A                      A
 Frequencies --  3220.7964              3237.5466              3599.7330
 Red. masses --     1.0925                 1.0943                 1.0780
 Frc consts  --     6.6770                 6.7580                 8.2301
 IR Inten    --     0.3980                 1.9513               107.6307

 - Thermochemistry -
 -------------------
 Temperature   298.150 Kelvin.  Pressure   1.00000 Atm.
 Atom     1 has atomic number  6 and mass  12.00000

 Molecular mass:   184.04034 amu.
 Principal axes and moments of inertia in atomic units:
                           1         2         3
     Eigenvalues --   743.336555753.150056474.26839
           X            1.00000   0.00135  -0.00001
           Y           -0.00135   1.00000  -0.00013
           Z            0.00001   0.00013   1.00000
 This molecule is an asymmetric top.
 Rotational symmetry number  1.
 Warning -- assumption of classical behavior for rotation
           may cause significant error
 Rotational temperatures (Kelvin)      0.11652     0.01506     0.01338
 Rotational constants (GHZ):           2.42789     0.31370     0.27876
 Zero-point vibrational energy     426875.9 (Joules/Mol)
                                  102.02579 (Kcal/Mol)
 Warning -- explicit consideration of  16 degrees of freedom as
           vibrations may cause significant error
 Vibrational temperatures:     26.76    57.55    80.68   128.45   220.54
          (Kelvin)            252.06   308.92   309.83   341.00   516.68
                              598.86   635.79   700.10   712.02   800.26
                              866.20   930.04   944.02  1038.22  1054.58
                             1207.35  1264.64  1277.99  1404.82  1422.68
                             1452.10  1459.00  1467.96  1539.88  1619.95
                             1631.28  1670.61  1774.24  1802.87  1836.75
                             1888.45  1909.33  1979.27  2050.78  2078.07
                             2161.35  2176.09  2180.48  2203.48  2226.91
                             2320.45  2355.56  2558.53  4357.99  4382.83
                             4408.34  4516.64  4518.04  4584.07  4634.00
                             4658.10  5179.21

 Zero-point correction=                           0.162588 (Hartree/Particle)
 Thermal correction to Energy=                    0.174340
 Thermal correction to Enthalpy=                  0.175284
 Thermal correction to Gibbs Free Energy=         0.121930
 Sum of electronic and zero-point Energies=           -955.050171
 Sum of electronic and thermal Energies=              -955.038419
 Sum of electronic and thermal Enthalpies=            -955.037475
 Sum of electronic and thermal Free Energies=         -955.090830

                     E (Thermal)             CV                S
                      KCal/Mol        Cal/Mol-Kelvin    Cal/Mol-Kelvin
 Total                  109.400             41.654            112.295
 Electronic               0.000              0.000              0.000
 Translational            0.889              2.981             41.536
 Rotational               0.889              2.981             31.693
 Vibrational            107.623             35.693             39.065
 Vibration     1          0.593              1.986              6.778
 Vibration     2          0.594              1.981              5.259
 Vibration     3          0.596              1.975              4.591
 Vibration     4          0.602              1.957              3.676
 Vibration     5          0.619              1.899              2.631
 Vibration     6          0.627              1.873              2.379
 Vibration     7          0.645              1.819              2.003
 Vibration     8          0.645              1.818              1.998
 Vibration     9          0.656              1.784              1.825
 Vibration    10          0.734              1.557              1.126
 Vibration    11          0.779              1.435              0.905
 Vibration    12          0.802              1.379              0.821
 Vibration    13          0.843              1.280              0.692
 Vibration    14          0.850              1.261              0.671
 Vibration    15          0.912              1.126              0.531
 Vibration    16          0.960              1.027              0.446

 Normal termination of Gaussian 09 at Fri Feb 16 20:21:43 2018.
