 Gaussian 09, Revision C.01,
 Gaussian 09:  AM64L-G09RevC.01 23-Sep-2011

 ----------------------------------------------------------------------
 #HF/6-31G* Geom=AllCheck Guess=Read Pop=(MK,ReadRadii) Integral=(Grid=
 UltraFine) iop(6/33=2)
 ----------------------------------------------------------------------

 Structure from the checkpoint file:  frag29-conf0.chk
 -----------------------------
 Optimization for frag29-conf0
 -----------------------------
 Charge =  0 Multiplicity = 1

                         Standard orientation:
 ---------------------------------------------------------------------
 Center     Atomic      Atomic             Coordinates (Angstroms)
 Number     Number       Type             X           Y           Z
 ---------------------------------------------------------------------
      1          6           0       -2.509408    1.358592   -0.001220
      2          6           0       -1.347008   -0.755208    0.001219
      3          6           0       -1.259730    1.969991   -0.000342
      4          6           0       -2.535399   -0.036679   -0.000376
      5          6           0       -0.142625   -0.038214    0.001831
      6          6           0        3.575890   -0.325328   -0.000795
      7          6           0        4.655105    0.747650   -0.002243
      8          6           0        1.176833   -0.786359    0.003780
      9          7           0       -0.099740    1.299503    0.001130
     10          7           0        2.292622    0.130072    0.003685
     11          8           0        3.841816   -1.523212   -0.003164
     12         17           0       -4.068381   -0.881783   -0.001325
     13          1           0       -3.423542    1.940858   -0.002468
     14          1           0       -1.350472   -1.840222    0.001931
     15          1           0       -1.185522    3.055488   -0.000938
     16          1           0        5.291583    0.609893    0.877366
     17          1           0        5.287011    0.612147   -0.885496
     18          1           0        4.260478    1.768534    0.000146
     19          1           0        1.227696   -1.448725    0.879814
     20          1           0        1.229623   -1.450639   -0.870636
     21          1           0        2.058977    1.114981    0.003302
 ---------------------------------------------------------------------

 SCF Done:  E(RHF) =  -951.447547619     A.U. after   14 cycles

 The electronic state is 1-A.
 Alpha  occ. eigenvalues -- -104.84859 -20.51397 -15.59238 -15.58206 -11.34759
 Alpha  occ. eigenvalues --  -11.34227 -11.31266 -11.30389 -11.27927 -11.26792
 Alpha  occ. eigenvalues --  -11.26749 -11.23438 -10.58173  -8.05111  -8.04771
 Alpha  occ. eigenvalues --   -8.04767  -1.36656  -1.29004  -1.22313  -1.18232
 Alpha  occ. eigenvalues --   -1.07670  -1.06442  -1.00793  -0.94710  -0.88085
 Alpha  occ. eigenvalues --   -0.83053  -0.78889  -0.71633  -0.70061  -0.68128
 Alpha  occ. eigenvalues --   -0.65194  -0.64444  -0.63992  -0.60084  -0.59369
 Alpha  occ. eigenvalues --   -0.58023  -0.56608  -0.56524  -0.55058  -0.53842
 Alpha  occ. eigenvalues --   -0.50692  -0.49255  -0.47264  -0.44353  -0.41120
 Alpha  occ. eigenvalues --   -0.39047  -0.38386  -0.35797
 Alpha virt. eigenvalues --    0.09608   0.11023   0.17779   0.20272   0.23713
 Alpha virt. eigenvalues --    0.25579   0.26333   0.28623   0.29086   0.29785
 Alpha virt. eigenvalues --    0.30305   0.32899   0.33756   0.36430   0.36980

 Mulliken atomic charges:
              1
     1  C   -0.252517
     2  C   -0.243102
     3  C    0.093810
     4  C   -0.077095
     5  C    0.302300
     6  C    0.768154
     7  C   -0.574041
     8  C   -0.084872
     9  N   -0.615416
    10  N   -0.841983
    11  O   -0.633582
    12  Cl   0.027817
    13  H    0.242531
    14  H    0.245699
    15  H    0.219588
    16  H    0.205330
    17  H    0.205292
    18  H    0.170393
    19  H    0.206431
    20  H    0.206698
    21  H    0.428565
 Sum of Mulliken atomic charges =   0.00000

 Dipole moment (field-independent basis, Debye):
    X=             -2.1891    Y=              3.5543    Z=              0.0033  Tot=              4.1744
 Quadrupole moment (field-independent basis, Debye-Ang):
   XX=            -85.1333   YY=            -75.7577   ZZ=            -78.7383
   XY=              9.5485   XZ=              0.0162   YZ=             -0.0243

 Normal termination of Gaussian 09 at Sat Feb 17 21:01:06 2018.
