 Gaussian 09, Revision C.01,
 Gaussian 09:  AM64L-G09RevC.01 23-Sep-2011

 ---------------------------------------------------------
 #B3LYP/6-31G* Integral=(Grid=UltraFine) freq Opt pop=none
 ---------------------------------------------------------

 99/9=1/99;
 -----------------------------
 Optimization for frag25-conf2
 -----------------------------
 Charge =  0 Multiplicity = 1

 SCF Done:  E(RB3LYP) =  -1048.98362894     A.U. after   15 cycles
 SCF Done:  E(RB3LYP) =  -1048.99079308     A.U. after   13 cycles
 SCF Done:  E(RB3LYP) =  -1048.99071379     A.U. after   14 cycles
 SCF Done:  E(RB3LYP) =  -1048.99189075     A.U. after   13 cycles
 SCF Done:  E(RB3LYP) =  -1048.99323378     A.U. after   15 cycles
 SCF Done:  E(RB3LYP) =  -1048.99476352     A.U. after   13 cycles
 SCF Done:  E(RB3LYP) =  -1048.87824490     A.U. after   16 cycles
 SCF Done:  E(RB3LYP) =  -1048.94720420     A.U. after   13 cycles
 SCF Done:  E(RB3LYP) =  -1048.97015956     A.U. after   13 cycles
 SCF Done:  E(RB3LYP) =  -1048.99540554     A.U. after   15 cycles
 SCF Done:  E(RB3LYP) =  -1049.00632919     A.U. after   14 cycles
 SCF Done:  E(RB3LYP) =  -1049.00626221     A.U. after   12 cycles
 SCF Done:  E(RB3LYP) =  -1049.00634361     A.U. after   11 cycles
 SCF Done:  E(RB3LYP) =  -1049.00635319     A.U. after   10 cycles
 SCF Done:  E(RB3LYP) =  -1049.00636263     A.U. after   11 cycles
 SCF Done:  E(RB3LYP) =  -1049.00636506     A.U. after   10 cycles
 SCF Done:  E(RB3LYP) =  -1049.00636594     A.U. after    8 cycles
 SCF Done:  E(RB3LYP) =  -1049.00636615     A.U. after    8 cycles
 SCF Done:  E(RB3LYP) =  -1049.00636619     A.U. after    7 cycles
 Optimization completed.
    -- Stationary point found.
 Normal termination of Gaussian 09 at Fri Feb 16 21:48:35 2018.

 --------------------------------------------------------------------
 #N Geom=AllCheck Guess=TCheck SCRF=Check GenChk RB3LYP/6-31G(d) Freq
 --------------------------------------------------------------------

 Structure from the checkpoint file:  frag25-conf2.chk
 -----------------------------
 Optimization for frag25-conf2
 -----------------------------
 Charge =  0 Multiplicity = 1

                         Standard orientation:
 ---------------------------------------------------------------------
 Center     Atomic      Atomic             Coordinates (Angstroms)
 Number     Number       Type             X           Y           Z
 ---------------------------------------------------------------------
      1          6           0        1.326393   -0.385474   -0.588254
      2          6           0        2.212500    2.321579    0.292015
      3          6           0       -0.182117    3.124349    0.197884
      4          6           0        3.060849   -2.060970   -0.309171
      5          6           0        1.882756   -1.205908    1.709625
      6          6           0       -3.497584    0.414070    0.327267
      7          6           0        0.324215    0.639241   -0.016589
      8          6           0        0.819241    2.080006   -0.310130
      9          7           0       -0.974403    0.412018   -0.690029
     10          7           0        2.053493   -1.168219    0.256831
     11          8           0        1.432674   -0.439141   -1.816527
     12          8           0       -1.562011   -1.065773    1.342404
     13          8           0       -2.469782   -1.645809   -0.979229
     14         16           0       -2.079477   -0.655262    0.027681
     15          1           0        2.198782    2.207142    1.384043
     16          1           0        2.961901    1.634797   -0.114668
     17          1           0        2.547301    3.341697    0.074285
     18          1           0       -0.275847    3.082320    1.291546
     19          1           0       -1.173238    2.969501   -0.237261
     20          1           0        0.151878    4.134458   -0.065441
     21          1           0        4.045884   -1.846263    0.123586
     22          1           0        3.091522   -1.906889   -1.386597
     23          1           0        2.806813   -3.107187   -0.099172
     24          1           0        0.826124   -1.191542    1.983130
     25          1           0        2.409454   -0.382593    2.209945
     26          1           0        2.304628   -2.145688    2.074983
     27          1           0       -4.268763   -0.200020    0.798073
     28          1           0       -3.194747    1.224782    0.991711
     29          1           0       -3.849876    0.804609   -0.628653
     30          1           0        0.162438    0.530294    1.055119
     31          1           0        0.900128    2.165221   -1.401432
     32          1           0       -0.810944    0.107379   -1.652774
 ---------------------------------------------------------------------

 SCF Done:  E(RB3LYP) =  -1049.00636619     A.U. after    1 cycles

 Isotropic polarizability for W=    0.000000      122.77 Bohr**3.
 End of Minotr Frequency-dependent properties file   721 does not exist.

                     1                      2                      3
                     A                      A                      A
 Frequencies --    20.0725                42.9095                54.4734
 Red. masses --     5.5548                 4.0059                 3.5418
 Frc consts  --     0.0013                 0.0043                 0.0062
 IR Inten    --     5.6833                 1.7091                 3.1950

                     4                      5                      6
                     A                      A                      A
 Frequencies --    60.6644                69.1133               101.7827
 Red. masses --     2.7129                 1.8293                 1.4973
 Frc consts  --     0.0059                 0.0051                 0.0091
 IR Inten    --     1.7611                 0.1964                 0.4388

                     7                      8                      9
                     A                      A                      A
 Frequencies --   123.6282               133.0740               168.1228
 Red. masses --     1.4721                 3.5875                 2.8563
 Frc consts  --     0.0133                 0.0374                 0.0476
 IR Inten    --     1.1497                 2.2937                 0.3270

                    10                     11                     12
                     A                      A                      A
 Frequencies --   204.3875               221.3501               225.6289
 Red. masses --     2.8097                 1.2228                 1.1095
 Frc consts  --     0.0692                 0.0353                 0.0333
 IR Inten    --     4.9592                 0.9873                 1.2017

                    13                     14                     15
                     A                      A                      A
 Frequencies --   239.6086               247.6823               248.9660
 Red. masses --     2.1672                 1.3713                 2.7918
 Frc consts  --     0.0733                 0.0496                 0.1020
 IR Inten    --     2.2169                 0.2052                 3.6212

                    16                     17                     18
                     A                      A                      A
 Frequencies --   282.7789               312.6119               332.7423
 Red. masses --     3.0860                 3.5403                 3.2841
 Frc consts  --     0.1454                 0.2038                 0.2142
 IR Inten    --     4.4523                 0.9507                 8.2104

                    19                     20                     21
                     A                      A                      A
 Frequencies --   355.2679               367.0035               415.6127
 Red. masses --     3.6844                 3.5211                 2.5540
 Frc consts  --     0.2740                 0.2794                 0.2599
 IR Inten    --     9.2487                15.0655                 6.5527

                    22                     23                     24
                     A                      A                      A
 Frequencies --   424.6530               451.6832               464.3476
 Red. masses --     2.8708                 2.9331                 4.6847
 Frc consts  --     0.3050                 0.3526                 0.5951
 IR Inten    --    11.2448                18.9142                 0.8074

                    25                     26                     27
                     A                      A                      A
 Frequencies --   508.4939               516.2613               634.2121
 Red. masses --     5.3826                 5.9486                 3.9694
 Frc consts  --     0.8200                 0.9341                 0.9407
 IR Inten    --    39.6143                23.8046                 0.3268

                    28                     29                     30
                     A                      A                      A
 Frequencies --   679.3593               741.2134               754.5326
 Red. masses --     4.1185                 3.9120                 3.6524
 Frc consts  --     1.1199                 1.2663                 1.2251
 IR Inten    --    67.9331                34.6036                37.2275

                    31                     32                     33
                     A                      A                      A
 Frequencies --   826.0548               871.7455               938.0855
 Red. masses --     4.9636                 2.6539                 1.8430
 Frc consts  --     1.9955                 1.1882                 0.9556
 IR Inten    --    54.8345                 9.7753               105.6305

                    34                     35                     36
                     A                      A                      A
 Frequencies --   943.8905               950.6869               972.9985
 Red. masses --     1.5651                 1.7816                 1.5286
 Frc consts  --     0.8215                 0.9487                 0.8526
 IR Inten    --     7.0777                17.8885                 3.9053

                    37                     38                     39
                     A                      A                      A
 Frequencies --   992.8360               999.0609              1001.9905
 Red. masses --     1.7609                 1.3619                 1.7964
 Frc consts  --     1.0227                 0.8009                 1.0626
 IR Inten    --    16.9038                 3.6228                82.3226

                    40                     41                     42
                     A                      A                      A
 Frequencies --  1074.4693              1093.1137              1122.9146
 Red. masses --     3.8276                 1.4978                 8.2332
 Frc consts  --     2.6035                 1.0545                 6.1167
 IR Inten    --    48.0618                12.2752               114.2737

                    43                     44                     45
                     A                      A                      A
 Frequencies --  1136.9541              1144.2546              1155.0734
 Red. masses --     1.3515                 1.6049                 2.1555
 Frc consts  --     1.0293                 1.2381                 1.6944
 IR Inten    --    12.1444                13.2379                42.0709

                    46                     47                     48
                     A                      A                      A
 Frequencies --  1177.9247              1190.4648              1204.8150
 Red. masses --     1.3900                 2.0086                 1.7545
 Frc consts  --     1.1363                 1.6772                 1.5005
 IR Inten    --     5.0844                53.8555                 3.0089

                    49                     50                     51
                     A                      A                      A
 Frequencies --  1288.7713              1292.3161              1304.8202
 Red. masses --     2.3625                 2.1140                 1.8473
 Frc consts  --     2.3119                 2.0801                 1.8530
 IR Inten    --    34.6797                17.8543                40.8717

                    52                     53                     54
                     A                      A                      A
 Frequencies --  1336.6545              1372.1065              1381.9460
 Red. masses --     2.5464                 1.3823                 1.2224
 Frc consts  --     2.6805                 1.5334                 1.3754
 IR Inten    --   105.7842                 0.7421                 7.2585

                    55                     56                     57
                     A                      A                      A
 Frequencies --  1385.4575              1425.9851              1430.1008
 Red. masses --     1.3315                 1.2626                 1.8229
 Frc consts  --     1.5058                 1.5126                 2.1965
 IR Inten    --     5.2772                10.2737               157.2375

                    58                     59                     60
                     A                      A                      A
 Frequencies --  1446.8209              1453.1518              1474.0178
 Red. masses --     1.2416                 1.1610                 1.4943
 Frc consts  --     1.5313                 1.4444                 1.9129
 IR Inten    --     4.7649                 9.9851                42.5457

                    61                     62                     63
                     A                      A                      A
 Frequencies --  1484.3297              1487.1926              1500.1974
 Red. masses --     1.0504                 1.0830                 1.2347
 Frc consts  --     1.3636                 1.4113                 1.6373
 IR Inten    --     7.4985                 1.1674                24.4908

                    64                     65                     66
                     A                      A                      A
 Frequencies --  1518.6590              1522.7215              1525.6433
 Red. masses --     1.0519                 1.0449                 1.0491
 Frc consts  --     1.4294                 1.4275                 1.4386
 IR Inten    --     1.5512                 1.6543                 8.6396

                    67                     68                     69
                     A                      A                      A
 Frequencies --  1534.4182              1536.3220              1543.0156
 Red. masses --     1.0479                 1.0558                 1.0473
 Frc consts  --     1.4536                 1.4682                 1.4691
 IR Inten    --     7.0171                 3.0615                 2.2966

                    70                     71                     72
                     A                      A                      A
 Frequencies --  1545.5866              1555.7819              1737.4427
 Red. masses --     1.0520                 1.2526                 8.5719
 Frc consts  --     1.4806                 1.7864                15.2458
 IR Inten    --    14.4070                48.5045               254.5320

                    73                     74                     75
                     A                      A                      A
 Frequencies --  3038.0516              3038.9215              3042.2459
 Red. masses --     1.0416                 1.0418                 1.0451
 Frc consts  --     5.6641                 5.6688                 5.6990
 IR Inten    --    40.4198                 3.9277                17.3955

                    76                     77                     78
                     A                      A                      A
 Frequencies --  3044.9931              3055.9698              3087.8939
 Red. masses --     1.0435                 1.0758                 1.0294
 Frc consts  --     5.7007                 5.9196                 5.7830
 IR Inten    --    73.4041                13.8986                 0.4595

                    79                     80                     81
                     A                      A                      A
 Frequencies --  3093.1954              3101.9261              3109.8700
 Red. masses --     1.1053                 1.0984                 1.0977
 Frc consts  --     6.2306                 6.2267                 6.2550
 IR Inten    --    30.7536                 6.5427                59.9673

                    82                     83                     84
                     A                      A                      A
 Frequencies --  3122.5863              3125.5166              3137.2765
 Red. masses --     1.0915                 1.1019                 1.0997
 Frc consts  --     6.2708                 6.3423                 6.3771
 IR Inten    --    16.8302                27.7405                24.0083

                    85                     86                     87
                     A                      A                      A
 Frequencies --  3152.5026              3165.9922              3186.9390
 Red. masses --     1.0906                 1.0977                 1.1065
 Frc consts  --     6.3861                 6.4828                 6.6217
 IR Inten    --     7.1583                 2.6011                 1.0109

                    88                     89                     90
                     A                      A                      A
 Frequencies --  3195.3079              3195.9649              3472.4921
 Red. masses --     1.0969                 1.1081                 1.0737
 Frc consts  --     6.5982                 6.6683                 7.6284
 IR Inten    --     0.9966                 1.0172                56.6684

 - Thermochemistry -
 -------------------
 Temperature   298.150 Kelvin.  Pressure   1.00000 Atm.
 Atom     1 has atomic number  6 and mass  12.00000

 Molecular mass:   222.10381 amu.
 Principal axes and moments of inertia in atomic units:
                           1         2         3
     Eigenvalues --  2390.828393784.967124923.19484
           X            0.99890  -0.04581   0.00968
           Y            0.04584   0.99895  -0.00236
           Z           -0.00957   0.00281   0.99995
 This molecule is an asymmetric top.
 Rotational symmetry number  1.
 Warning -- assumption of classical behavior for rotation
           may cause significant error
 Rotational temperatures (Kelvin)      0.03623     0.02288     0.01759
 Rotational constants (GHZ):           0.75486     0.47682     0.36658
 Zero-point vibrational energy     715670.0 (Joules/Mol)
                                  171.04923 (Kcal/Mol)
 Warning -- explicit consideration of  26 degrees of freedom as
           vibrations may cause significant error
 Vibrational temperatures:     28.88    61.74    78.38    87.28    99.44
          (Kelvin)            146.44   177.87   191.46   241.89   294.07
                              318.47   324.63   344.74   356.36   358.21
                              406.86   449.78   478.74   511.15   528.04
                              597.97   610.98   649.87   668.09   731.61
                              742.78   912.49   977.45  1066.44  1085.60
                             1188.51  1254.25  1349.69  1358.05  1367.82
                             1399.93  1428.47  1437.42  1441.64  1545.92
                             1572.74  1615.62  1635.82  1646.33  1661.89
                             1694.77  1712.81  1733.46  1854.25  1859.35
                             1877.34  1923.15  1974.15  1988.31  1993.36
                             2051.67  2057.59  2081.65  2090.76  2120.78
                             2135.62  2139.74  2158.45  2185.01  2190.85
                             2195.06  2207.68  2210.42  2220.05  2223.75
                             2238.42  2499.79  4371.07  4372.32  4377.11
                             4381.06  4396.85  4442.79  4450.41  4462.97
                             4474.40  4492.70  4496.92  4513.84  4535.74
                             4555.15  4585.29  4597.33  4598.27  4996.14

 Zero-point correction=                           0.272584 (Hartree/Particle)
 Thermal correction to Energy=                    0.290055
 Thermal correction to Enthalpy=                  0.290999
 Thermal correction to Gibbs Free Energy=         0.226181
 Sum of electronic and zero-point Energies=          -1048.733782
 Sum of electronic and thermal Energies=             -1048.716312
 Sum of electronic and thermal Enthalpies=           -1048.715367
 Sum of electronic and thermal Free Energies=        -1048.780185

                     E (Thermal)             CV                S
                      KCal/Mol        Cal/Mol-Kelvin    Cal/Mol-Kelvin
 Total                  182.012             62.050            136.421
 Electronic               0.000              0.000              0.000
 Translational            0.889              2.981             42.097
 Rotational               0.889              2.981             32.166
 Vibrational            180.235             56.088             62.158
 Vibration     1          0.593              1.986              6.627
 Vibration     2          0.595              1.980              5.120
 Vibration     3          0.596              1.976              4.648
 Vibration     4          0.597              1.973              4.435
 Vibration     5          0.598              1.969              4.178
 Vibration     6          0.604              1.948              3.420
 Vibration     7          0.610              1.929              3.043
 Vibration     8          0.613              1.920              2.901
 Vibration     9          0.625              1.882              2.456
 Vibration    10          0.640              1.834              2.093
 Vibration    11          0.648              1.809              1.948
 Vibration    12          0.650              1.802              1.913
 Vibration    13          0.657              1.780              1.806
 Vibration    14          0.661              1.767              1.747
 Vibration    15          0.662              1.764              1.738
 Vibration    16          0.682              1.706              1.517
 Vibration    17          0.701              1.650              1.348
 Vibration    18          0.715              1.610              1.247
 Vibration    19          0.731              1.564              1.143
 Vibration    20          0.740              1.540              1.092
 Vibration    21          0.779              1.436              0.907
 Vibration    22          0.787              1.417              0.876
 Vibration    23          0.810              1.357              0.791
 Vibration    24          0.822              1.329              0.754
 Vibration    25          0.864              1.231              0.637
 Vibration    26          0.871              1.214              0.619

 Optimization completed.
    -- Stationary point found.
 Normal termination of Gaussian 09 at Fri Feb 16 22:23:30 2018.
