 Gaussian 09, Revision C.01,
 Gaussian 09:  AM64L-G09RevC.01 23-Sep-2011

 ----------------------------------------------------------------------
 #HF/6-31G* Geom=AllCheck Guess=Read Pop=(MK,ReadRadii) Integral=(Grid=
 UltraFine) iop(6/33=2)
 ----------------------------------------------------------------------

 Structure from the checkpoint file:  frag25-conf2.chk
 -----------------------------
 Optimization for frag25-conf2
 -----------------------------
 Charge =  0 Multiplicity = 1

                         Standard orientation:
 ---------------------------------------------------------------------
 Center     Atomic      Atomic             Coordinates (Angstroms)
 Number     Number       Type             X           Y           Z
 ---------------------------------------------------------------------
      1          6           0        1.326393   -0.385474   -0.588254
      2          6           0        2.212500    2.321579    0.292015
      3          6           0       -0.182117    3.124349    0.197884
      4          6           0        3.060849   -2.060970   -0.309171
      5          6           0        1.882756   -1.205908    1.709625
      6          6           0       -3.497584    0.414070    0.327267
      7          6           0        0.324215    0.639241   -0.016589
      8          6           0        0.819241    2.080006   -0.310130
      9          7           0       -0.974403    0.412018   -0.690029
     10          7           0        2.053493   -1.168219    0.256831
     11          8           0        1.432674   -0.439141   -1.816527
     12          8           0       -1.562011   -1.065773    1.342404
     13          8           0       -2.469782   -1.645809   -0.979229
     14         16           0       -2.079477   -0.655262    0.027681
     15          1           0        2.198782    2.207142    1.384043
     16          1           0        2.961901    1.634797   -0.114668
     17          1           0        2.547301    3.341697    0.074285
     18          1           0       -0.275847    3.082320    1.291546
     19          1           0       -1.173238    2.969501   -0.237261
     20          1           0        0.151878    4.134458   -0.065441
     21          1           0        4.045884   -1.846263    0.123586
     22          1           0        3.091522   -1.906889   -1.386597
     23          1           0        2.806813   -3.107187   -0.099172
     24          1           0        0.826124   -1.191542    1.983130
     25          1           0        2.409454   -0.382593    2.209945
     26          1           0        2.304628   -2.145688    2.074983
     27          1           0       -4.268763   -0.200020    0.798073
     28          1           0       -3.194747    1.224782    0.991711
     29          1           0       -3.849876    0.804609   -0.628653
     30          1           0        0.162438    0.530294    1.055119
     31          1           0        0.900128    2.165221   -1.401432
     32          1           0       -0.810944    0.107379   -1.652774
 ---------------------------------------------------------------------

 SCF Done:  E(RHF) =  -1044.34893152     A.U. after   13 cycles

 The electronic state is 1-A.
 Alpha  occ. eigenvalues --  -92.21429 -20.56396 -20.55942 -20.52757 -15.60843
 Alpha  occ. eigenvalues --  -15.60129 -11.35782 -11.29289 -11.27984 -11.26870
 Alpha  occ. eigenvalues --  -11.25851 -11.24744 -11.22837 -11.22514  -9.18570
 Alpha  occ. eigenvalues --   -6.87156  -6.87142  -6.87035  -1.45595  -1.38137
 Alpha  occ. eigenvalues --   -1.33900  -1.24636  -1.23579  -1.09328  -1.04000
 Alpha  occ. eigenvalues --   -0.98541  -0.96754  -0.94071  -0.92146  -0.83368
 Alpha  occ. eigenvalues --   -0.79983  -0.75262  -0.72619  -0.69573  -0.67740
 Alpha  occ. eigenvalues --   -0.67057  -0.65741  -0.64935  -0.63615  -0.61930
 Alpha  occ. eigenvalues --   -0.60396  -0.59854  -0.59450  -0.56840  -0.56608
 Alpha  occ. eigenvalues --   -0.56220  -0.55800  -0.54414  -0.53640  -0.53113
 Alpha  occ. eigenvalues --   -0.51793  -0.50009  -0.49058  -0.48628  -0.47929
 Alpha  occ. eigenvalues --   -0.46825  -0.46023  -0.44016  -0.40610  -0.37347
 Alpha virt. eigenvalues --    0.17430   0.20269   0.22461   0.23692   0.24327
 Alpha virt. eigenvalues --    0.24546   0.25874   0.26851   0.27519   0.27731
 Alpha virt. eigenvalues --    0.28490   0.28871   0.29312   0.30229   0.31473

 Mulliken atomic charges:
              1
     1  C    0.790025
     2  C   -0.499868
     3  C   -0.483117
     4  C   -0.298763
     5  C   -0.318653
     6  C   -0.694804
     7  C   -0.064303
     8  C   -0.147793
     9  N   -0.902012
    10  N   -0.665470
    11  O   -0.661690
    12  O   -0.711774
    13  O   -0.677686
    14  S    1.603126
    15  H    0.154323
    16  H    0.183081
    17  H    0.174874
    18  H    0.150517
    19  H    0.182708
    20  H    0.169136
    21  H    0.165538
    22  H    0.237924
    23  H    0.174745
    24  H    0.238453
    25  H    0.169968
    26  H    0.188816
    27  H    0.232494
    28  H    0.221688
    29  H    0.227546
    30  H    0.230999
    31  H    0.195733
    32  H    0.434237
 Sum of Mulliken atomic charges =   0.00000

 Dipole moment (field-independent basis, Debye):
    X=              0.7759    Y=              3.4269    Z=              2.9553  Tot=              4.5913
 Quadrupole moment (field-independent basis, Debye-Ang):
   XX=            -82.8627   YY=            -95.5829   ZZ=           -100.9731
   XY=            -11.6043   XZ=              3.4332   YZ=             -2.8771

 Normal termination of Gaussian 09 at Sat Feb 17 21:01:25 2018.
