 Gaussian 09, Revision C.01,
 Gaussian 09:  AM64L-G09RevC.01 23-Sep-2011

 ----------------------------------------------------------------------
 #HF/6-31G* Geom=AllCheck Guess=Read Pop=(MK,ReadRadii) Integral=(Grid=
 UltraFine) iop(6/33=2)
 ----------------------------------------------------------------------

 Structure from the checkpoint file:  frag20-conf2.chk
 -----------------------------
 Optimization for frag20-conf2
 -----------------------------
 Charge =  1 Multiplicity = 1

                         Standard orientation:
 ---------------------------------------------------------------------
 Center     Atomic      Atomic             Coordinates (Angstroms)
 Number     Number       Type             X           Y           Z
 ---------------------------------------------------------------------
      1          6           0        2.264189    0.838077    0.650384
      2          6           0        2.670933   -0.477496    0.608054
      3          6           0        0.755258   -1.069551   -0.622292
      4          6           0        0.277707    0.236093   -0.621398
      5          6           0        1.054378    1.199934    0.040246
      6          6           0       -2.573202   -0.710718    0.182701
      7          6           0       -3.810168   -0.686453    1.052255
      8          6           0        2.332383   -2.836896   -0.005793
      9          6           0       -1.061726    0.527097   -1.284425
     10          7           0        1.916954   -1.412697   -0.022903
     11          7           0       -2.157241    0.491777   -0.330383
     12          8           0       -1.955213   -1.741860   -0.076679
     13         17           0        0.544418    2.847418    0.125183
     14          1           0        2.877662    1.576457    1.152919
     15          1           0        3.589178   -0.819940    1.069368
     16          1           0        0.181541   -1.867946   -1.074304
     17          1           0       -4.628690   -1.175045    0.512709
     18          1           0       -3.621206   -1.271264    1.956134
     19          1           0       -4.126967    0.322033    1.332232
     20          1           0        1.846741   -3.342878    0.832130
     21          1           0        2.034822   -3.305054   -0.944138
     22          1           0        3.415790   -2.891038    0.099905
     23          1           0       -1.039503    1.512664   -1.752362
     24          1           0       -1.233255   -0.218253   -2.067534
     25          1           0       -2.686000    1.334966   -0.157125
 ---------------------------------------------------------------------

 SCF Done:  E(RHF) =  -990.855465419     A.U. after   14 cycles

 The electronic state is 1-A.
 Alpha  occ. eigenvalues -- -104.99018 -20.64785 -15.84929 -15.71987 -11.50578
 Alpha  occ. eigenvalues --  -11.48802 -11.48331 -11.47742 -11.44104 -11.43306
 Alpha  occ. eigenvalues --  -11.43046 -11.42299 -11.34209 -10.72329  -8.19264
 Alpha  occ. eigenvalues --   -8.18904  -8.18891  -1.51388  -1.50020  -1.36576
 Alpha  occ. eigenvalues --   -1.34196  -1.24978  -1.24478  -1.14685  -1.13043
 Alpha  occ. eigenvalues --   -1.09091  -1.03997  -1.00898  -0.91746  -0.88992
 Alpha  occ. eigenvalues --   -0.88914  -0.82983  -0.82345  -0.80927  -0.79780
 Alpha  occ. eigenvalues --   -0.78344  -0.77393  -0.74080  -0.73336  -0.71821
 Alpha  occ. eigenvalues --   -0.71475  -0.70019  -0.69636  -0.68084  -0.66252
 Alpha  occ. eigenvalues --   -0.65541  -0.62175  -0.61165  -0.55423  -0.54499
 Alpha  occ. eigenvalues --   -0.52346  -0.52022
 Alpha virt. eigenvalues --   -0.09504  -0.04850   0.03837   0.07484   0.09190
 Alpha virt. eigenvalues --    0.09750   0.11422   0.12648   0.13836   0.14751
 Alpha virt. eigenvalues --    0.15452   0.16412   0.16614   0.18143   0.19213

 Mulliken atomic charges:
              1
     1  C   -0.255557
     2  C    0.166103
     3  C    0.211955
     4  C   -0.040224
     5  C   -0.062634
     6  C    0.767612
     7  C   -0.583738
     8  C   -0.328077
     9  C   -0.160535
    10  N   -0.614547
    11  N   -0.794234
    12  O   -0.650511
    13  Cl   0.135110
    14  H    0.302164
    15  H    0.299781
    16  H    0.329930
    17  H    0.233810
    18  H    0.227802
    19  H    0.189243
    20  H    0.256154
    21  H    0.242697
    22  H    0.234886
    23  H    0.241898
    24  H    0.235870
    25  H    0.415042
 Sum of Mulliken atomic charges =   1.00000

 Dipole moment (field-independent basis, Debye):
    X=              4.7147    Y=             -1.3606    Z=              0.2682  Tot=              4.9144
 Quadrupole moment (field-independent basis, Debye-Ang):
   XX=            -42.4442   YY=            -65.7259   ZZ=            -76.3399
   XY=            -16.3055   XZ=              3.2149   YZ=              0.1830

 Normal termination of Gaussian 09 at Sat Feb 17 20:58:55 2018.
