 Gaussian 09, Revision C.01,
 Gaussian 09:  AM64L-G09RevC.01 23-Sep-2011

 ---------------------------------------------------------
 #B3LYP/6-31G* Integral=(Grid=UltraFine) freq Opt pop=none
 ---------------------------------------------------------

 99/9=1/99;
 -----------------------------
 Optimization for frag20-conf2
 -----------------------------
 Charge =  1 Multiplicity = 1

 SCF Done:  E(RB3LYP) =  -994.882098205     A.U. after   17 cycles
 SCF Done:  E(RB3LYP) =  -994.885541962     A.U. after   13 cycles
 SCF Done:  E(RB3LYP) =  -994.886037050     A.U. after   12 cycles
 SCF Done:  E(RB3LYP) =  -994.887106708     A.U. after   13 cycles
 SCF Done:  E(RB3LYP) =  -994.888882115     A.U. after   15 cycles
 SCF Done:  E(RB3LYP) =  -994.891297117     A.U. after   13 cycles
 SCF Done:  E(RB3LYP) =  -994.896948714     A.U. after   16 cycles
 SCF Done:  E(RB3LYP) =  -994.898911556     A.U. after   13 cycles
 SCF Done:  E(RB3LYP) =  -994.893879858     A.U. after   14 cycles
 SCF Done:  E(RB3LYP) =  -994.900390734     A.U. after   14 cycles
 SCF Done:  E(RB3LYP) =  -994.901466546     A.U. after   13 cycles
 SCF Done:  E(RB3LYP) =  -994.901519289     A.U. after   11 cycles
 SCF Done:  E(RB3LYP) =  -994.901537841     A.U. after   10 cycles
 SCF Done:  E(RB3LYP) =  -994.901539417     A.U. after    9 cycles
 SCF Done:  E(RB3LYP) =  -994.901541369     A.U. after    9 cycles
 SCF Done:  E(RB3LYP) =  -994.901544522     A.U. after    9 cycles
 SCF Done:  E(RB3LYP) =  -994.901549368     A.U. after    9 cycles
 SCF Done:  E(RB3LYP) =  -994.901553644     A.U. after   10 cycles
 SCF Done:  E(RB3LYP) =  -994.901554466     A.U. after    9 cycles
 Optimization completed.
    -- Stationary point found.
 Normal termination of Gaussian 09 at Fri Feb 16 19:45:44 2018.

 --------------------------------------------------------------------
 #N Geom=AllCheck Guess=TCheck SCRF=Check GenChk RB3LYP/6-31G(d) Freq
 --------------------------------------------------------------------

 Structure from the checkpoint file:  frag20-conf2.chk
 -----------------------------
 Optimization for frag20-conf2
 -----------------------------
 Charge =  1 Multiplicity = 1

                         Standard orientation:
 ---------------------------------------------------------------------
 Center     Atomic      Atomic             Coordinates (Angstroms)
 Number     Number       Type             X           Y           Z
 ---------------------------------------------------------------------
      1          6           0        2.264189    0.838077    0.650384
      2          6           0        2.670933   -0.477496    0.608054
      3          6           0        0.755258   -1.069551   -0.622292
      4          6           0        0.277707    0.236093   -0.621398
      5          6           0        1.054378    1.199934    0.040246
      6          6           0       -2.573202   -0.710718    0.182701
      7          6           0       -3.810168   -0.686453    1.052255
      8          6           0        2.332383   -2.836896   -0.005793
      9          6           0       -1.061726    0.527097   -1.284425
     10          7           0        1.916954   -1.412697   -0.022903
     11          7           0       -2.157241    0.491777   -0.330383
     12          8           0       -1.955213   -1.741860   -0.076679
     13         17           0        0.544418    2.847418    0.125183
     14          1           0        2.877662    1.576457    1.152919
     15          1           0        3.589178   -0.819940    1.069368
     16          1           0        0.181541   -1.867946   -1.074304
     17          1           0       -4.628690   -1.175045    0.512709
     18          1           0       -3.621206   -1.271264    1.956134
     19          1           0       -4.126967    0.322033    1.332232
     20          1           0        1.846741   -3.342878    0.832130
     21          1           0        2.034822   -3.305054   -0.944138
     22          1           0        3.415790   -2.891038    0.099905
     23          1           0       -1.039503    1.512664   -1.752362
     24          1           0       -1.233255   -0.218253   -2.067534
     25          1           0       -2.686000    1.334966   -0.157125
 ---------------------------------------------------------------------

 SCF Done:  E(RB3LYP) =  -994.901554466     A.U. after    1 cycles

 Isotropic polarizability for W=    0.000000      117.29 Bohr**3.
 End of Minotr Frequency-dependent properties file   721 does not exist.

                     1                      2                      3
                     A                      A                      A
 Frequencies --     6.9033                33.9732                52.7687
 Red. masses --     1.0394                 4.4770                 1.2754
 Frc consts  --     0.0000                 0.0030                 0.0021
 IR Inten    --     0.2560                 2.5351                 2.8887

                     4                      5                      6
                     A                      A                      A
 Frequencies --    67.5286                90.2585               106.4547
 Red. masses --     2.5941                 5.0741                 4.3775
 Frc consts  --     0.0070                 0.0244                 0.0292
 IR Inten    --     4.3890                21.1703                 1.9112

                     7                      8                      9
                     A                      A                      A
 Frequencies --   171.0200               197.0022               256.2902
 Red. masses --     5.8126                 5.9286                 4.2582
 Frc consts  --     0.1002                 0.1356                 0.1648
 IR Inten    --     3.1307                 4.1777                 1.7290

                    10                     11                     12
                     A                      A                      A
 Frequencies --   290.1235               328.5431               334.6339
 Red. masses --     4.8515                 2.2768                 4.4705
 Frc consts  --     0.2406                 0.1448                 0.2950
 IR Inten    --     5.1429                 9.9840                 4.6374

                    13                     14                     15
                     A                      A                      A
 Frequencies --   386.6686               407.0937               426.0974
 Red. masses --     6.1116                 1.1986                 3.1474
 Frc consts  --     0.5384                 0.1170                 0.3367
 IR Inten    --    17.4920                66.6846                 3.3598

                    16                     17                     18
                     A                      A                      A
 Frequencies --   471.8972               484.3958               546.2367
 Red. masses --     3.0333                 3.1691                 4.1858
 Frc consts  --     0.3980                 0.4381                 0.7359
 IR Inten    --     2.9855                22.2101                 5.6737

                    19                     20                     21
                     A                      A                      A
 Frequencies --   600.8891               635.9744               659.7161
 Red. masses --     4.1358                 2.7153                 5.1210
 Frc consts  --     0.8798                 0.6471                 1.3132
 IR Inten    --     1.3165                 1.4010                 5.5886

                    22                     23                     24
                     A                      A                      A
 Frequencies --   680.2250               736.3058               775.0940
 Red. masses --     4.7335                 5.3652                 4.3648
 Frc consts  --     1.2904                 1.7138                 1.5450
 IR Inten    --     8.0995                 2.1664                 9.9498

                    25                     26                     27
                     A                      A                      A
 Frequencies --   845.1241               864.0753               908.4453
 Red. masses --     1.3251                 2.6236                 1.5420
 Frc consts  --     0.5576                 1.1541                 0.7498
 IR Inten    --    27.3763                 1.9287                 9.8616

                    28                     29                     30
                     A                      A                      A
 Frequencies --   955.5369               975.0631              1006.0330
 Red. masses --     3.8453                 1.3222                 1.6134
 Frc consts  --     2.0686                 0.7407                 0.9621
 IR Inten    --    18.7441                 0.1025                 6.7022

                    31                     32                     33
                     A                      A                      A
 Frequencies --  1043.9535              1071.8010              1107.1569
 Red. masses --     2.6172                 1.7265                 2.7982
 Frc consts  --     1.6806                 1.1686                 2.0209
 IR Inten    --     5.9803                10.1276                36.3722

                    34                     35                     36
                     A                      A                      A
 Frequencies --  1113.6131              1123.6869              1156.4669
 Red. masses --     4.2163                 2.0286                 1.3395
 Frc consts  --     3.0807                 1.5092                 1.0555
 IR Inten    --    59.1642                 6.2304                 5.0479

                    37                     38                     39
                     A                      A                      A
 Frequencies --  1195.5433              1215.0952              1247.8384
 Red. masses --     1.5972                 2.0536                 2.4712
 Frc consts  --     1.3451                 1.7864                 2.2671
 IR Inten    --     5.4514                 6.1441                29.7146

                    40                     41                     42
                     A                      A                      A
 Frequencies --  1274.2795              1306.1846              1325.2555
 Red. masses --     1.6517                 1.6119                 2.1066
 Frc consts  --     1.5802                 1.6203                 2.1799
 IR Inten    --    71.8323                28.0290                13.7843

                    43                     44                     45
                     A                      A                      A
 Frequencies --  1380.2959              1406.7103              1430.8777
 Red. masses --     2.1741                 1.2810                 1.2337
 Frc consts  --     2.4405                 1.4935                 1.4882
 IR Inten    --    15.7420                27.9781                18.4194

                    46                     47                     48
                     A                      A                      A
 Frequencies --  1468.8610              1487.0978              1494.8705
 Red. masses --     1.3339                 1.6675                 1.0649
 Frc consts  --     1.6957                 2.1727                 1.4021
 IR Inten    --     8.5299                12.6677                14.9043

                    49                     50                     51
                     A                      A                      A
 Frequencies --  1500.3457              1510.7538              1511.2914
 Red. masses --     1.1657                 1.0905                 1.0825
 Frc consts  --     1.5460                 1.4665                 1.4567
 IR Inten    --    13.4313                29.1560                28.0610

                    52                     53                     54
                     A                      A                      A
 Frequencies --  1522.8779              1535.0085              1546.3886
 Red. masses --     1.2070                 1.8998                 1.9128
 Frc consts  --     1.6493                 2.6375                 2.6950
 IR Inten    --    22.1950                65.1642               151.0515

                    55                     56                     57
                     A                      A                      A
 Frequencies --  1603.3321              1677.7801              1756.7204
 Red. masses --     5.7996                 4.7733                 8.9043
 Frc consts  --     8.7840                 7.9166                16.1903
 IR Inten    --    15.6374               107.6194               161.8964

                    58                     59                     60
                     A                      A                      A
 Frequencies --  3072.2105              3087.4084              3098.0422
 Red. masses --     1.0362                 1.0652                 1.0325
 Frc consts  --     5.7626                 5.9823                 5.8388
 IR Inten    --     1.6983                 9.0765                 1.5861

                    61                     62                     63
                     A                      A                      A
 Frequencies --  3142.6125              3154.5806              3160.3817
 Red. masses --     1.1014                 1.1013                 1.1039
 Frc consts  --     6.4087                 6.4572                 6.4963
 IR Inten    --     4.4244                 0.5479                 5.5968

                    64                     65                     66
                     A                      A                      A
 Frequencies --  3185.4858              3203.7525              3248.0449
 Red. masses --     1.1066                 1.1084                 1.0915
 Frc consts  --     6.6158                 6.7032                 6.7847
 IR Inten    --     0.7571                 0.2730                 3.9461

                    67                     68                     69
                     A                      A                      A
 Frequencies --  3260.9213              3273.3774              3633.6716
 Red. masses --     1.0977                 1.0949                 1.0793
 Frc consts  --     6.8773                 6.9121                 8.3962
 IR Inten    --     9.4420                12.4792                43.6621

 - Thermochemistry -
 -------------------
 Temperature   298.150 Kelvin.  Pressure   1.00000 Atm.
 Atom     1 has atomic number  6 and mass  12.00000

 Molecular mass:   199.06382 amu.
 Principal axes and moments of inertia in atomic units:
                           1         2         3
     Eigenvalues --  2261.261493092.363264831.92944
           X            0.99670  -0.08102  -0.00447
           Y            0.08100   0.99670  -0.00485
           Z            0.00485   0.00447   0.99998
 This molecule is an asymmetric top.
 Rotational symmetry number  1.
 Warning -- assumption of classical behavior for rotation
           may cause significant error
 Rotational temperatures (Kelvin)      0.03830     0.02801     0.01793
 Rotational constants (GHZ):           0.79811     0.58361     0.37350
 Zero-point vibrational energy     537332.3 (Joules/Mol)
                                  128.42550 (Kcal/Mol)
 Warning -- explicit consideration of  19 degrees of freedom as
           vibrations may cause significant error
 Vibrational temperatures:      9.93    48.88    75.92    97.16   129.86
          (Kelvin)            153.16   246.06   283.44   368.74   417.42
                              472.70   481.46   556.33   585.72   613.06
                              678.95   696.94   785.91   864.54   915.02
                              949.18   978.69  1059.38  1115.19  1215.94
                             1243.21  1307.05  1374.80  1402.90  1447.46
                             1502.01  1542.08  1592.95  1602.24  1616.73
                             1663.90  1720.12  1748.25  1795.36  1833.40
                             1879.31  1906.74  1985.94  2023.94  2058.71
                             2113.36  2139.60  2150.78  2158.66  2173.64
                             2174.41  2191.08  2208.53  2224.91  2306.83
                             2413.95  2527.53  4420.22  4442.09  4457.39
                             4521.51  4538.73  4547.08  4583.20  4609.48
                             4673.21  4691.73  4709.65  5228.04

 Zero-point correction=                           0.204659 (Hartree/Particle)
 Thermal correction to Energy=                    0.218162
 Thermal correction to Enthalpy=                  0.219107
 Thermal correction to Gibbs Free Energy=         0.160899
 Sum of electronic and zero-point Energies=           -994.696895
 Sum of electronic and thermal Energies=              -994.683392
 Sum of electronic and thermal Enthalpies=            -994.682448
 Sum of electronic and thermal Free Energies=         -994.740656

                     E (Thermal)             CV                S
                      KCal/Mol        Cal/Mol-Kelvin    Cal/Mol-Kelvin
 Total                  136.899             48.106            122.509
 Electronic               0.000              0.000              0.000
 Translational            0.889              2.981             41.770
 Rotational               0.889              2.981             31.891
 Vibrational            135.121             42.145             48.848
 Vibration     1          0.593              1.987              8.747
 Vibration     2          0.594              1.983              5.583
 Vibration     3          0.596              1.977              4.711
 Vibration     4          0.598              1.970              4.224
 Vibration     5          0.602              1.956              3.654
 Vibration     6          0.605              1.944              3.333
 Vibration     7          0.626              1.878              2.424
 Vibration     8          0.636              1.844              2.161
 Vibration     9          0.666              1.752              1.687
 Vibration    10          0.686              1.692              1.473
 Vibration    11          0.712              1.618              1.267
 Vibration    12          0.716              1.606              1.238
 Vibration    13          0.755              1.499              1.013
 Vibration    14          0.772              1.455              0.937
 Vibration    15          0.788              1.413              0.872
 Vibration    16          0.829              1.312              0.732
 Vibration    17          0.841              1.285              0.698
 Vibration    18          0.901              1.148              0.552
 Vibration    19          0.959              1.030              0.448

 Normal termination of Gaussian 09 at Fri Feb 16 20:12:19 2018.
