 Gaussian 09, Revision C.01,
 Gaussian 09:  AM64L-G09RevC.01 23-Sep-2011

 ----------------------------------------------------------------------
 #HF/6-31G* Geom=AllCheck Guess=Read Pop=(MK,ReadRadii) Integral=(Grid=
 UltraFine) iop(6/33=2)
 ----------------------------------------------------------------------

 Structure from the checkpoint file:  frag26-conf0.chk
 -----------------------------
 Optimization for frag26-conf0
 -----------------------------
 Charge =  0 Multiplicity = 1

                         Standard orientation:
 ---------------------------------------------------------------------
 Center     Atomic      Atomic             Coordinates (Angstroms)
 Number     Number       Type             X           Y           Z
 ---------------------------------------------------------------------
      1          6           0       -2.382642   -0.789199   -0.475358
      2          6           0        4.331021   -1.417859    0.391107
      3          6           0        3.392018   -0.660705    1.340744
      4          6           0        3.975681   -1.140350   -1.076737
      5          6           0        1.914642   -0.966149    1.045641
      6          6           0        2.498766   -1.448282   -1.366884
      7          6           0        1.548371   -0.680726   -0.424168
      8          6           0       -4.217121   -2.332167   -0.062699
      9          6           0       -2.403048   -2.231442    1.591293
     10          6           0       -1.384961    3.745480    0.316953
     11          6           0        0.087297   -1.034849   -0.752454
     12          6           0       -1.019683   -0.180141   -0.083395
     13          7           0       -1.078459    1.211686   -0.544655
     14          7           0       -2.940871   -1.745736    0.329541
     15          8           0       -2.900435   -0.431909   -1.532659
     16          8           0        0.838403    2.922181   -0.827243
     17          8           0        0.232904    1.978307    1.467111
     18         16           0       -0.163306    2.433199    0.128053
     19          1           0        5.375401   -1.143380    0.588054
     20          1           0        4.249732   -2.498272    0.584980
     21          1           0        3.623333   -0.909300    2.384568
     22          1           0        3.557917    0.420557    1.233930
     23          1           0        4.173045   -0.082451   -1.302743
     24          1           0        4.619498   -1.727912   -1.744071
     25          1           0        1.714860   -2.029154    1.259989
     26          1           0        1.284353   -0.372565    1.716661
     27          1           0        2.261777   -1.205138   -2.411438
     28          1           0        2.323978   -2.529834   -1.251407
     29          1           0        1.700585    0.390959   -0.614279
     30          1           0       -4.116783   -3.418294   -0.184807
     31          1           0       -4.528255   -1.884886   -1.005198
     32          1           0       -4.977076   -2.139159    0.705723
     33          1           0       -3.027121   -1.907917    2.435923
     34          1           0       -1.385414   -1.884578    1.759533
     35          1           0       -2.385630   -3.328558    1.584983
     36          1           0       -0.864792    4.610734    0.734500
     37          1           0       -1.795692    3.993230   -0.663952
     38          1           0       -2.169633    3.401128    0.991453
     39          1           0       -0.074631   -0.971535   -1.837296
     40          1           0       -0.088996   -2.087704   -0.484528
     41          1           0       -0.877903   -0.130615    0.995514
     42          1           0       -1.253360    1.311510   -1.541065
 ---------------------------------------------------------------------

 SCF Done:  E(RHF) =  -1199.32558798     A.U. after   13 cycles

 The electronic state is 1-A.
 Alpha  occ. eigenvalues --  -92.21403 -20.55838 -20.55489 -20.53154 -15.60635
 Alpha  occ. eigenvalues --  -15.60264 -11.36409 -11.29747 -11.28182 -11.27676
 Alpha  occ. eigenvalues --  -11.26355 -11.23627 -11.22377 -11.21552 -11.21237
 Alpha  occ. eigenvalues --  -11.21151 -11.21132 -11.20974  -9.18447  -6.87055
 Alpha  occ. eigenvalues --   -6.87021  -6.86924  -1.45281  -1.38639  -1.33404
 Alpha  occ. eigenvalues --   -1.25321  -1.23536  -1.11724  -1.06384  -1.02898
 Alpha  occ. eigenvalues --   -0.99707  -0.99382  -0.98036  -0.93999  -0.88711
 Alpha  occ. eigenvalues --   -0.83290  -0.82361  -0.79580  -0.75910  -0.74465
 Alpha  occ. eigenvalues --   -0.73411  -0.68770  -0.67770  -0.67198  -0.66072
 Alpha  occ. eigenvalues --   -0.65260  -0.63607  -0.62351  -0.61760  -0.60414
 Alpha  occ. eigenvalues --   -0.59821  -0.59533  -0.58818  -0.58268  -0.57145
 Alpha  occ. eigenvalues --   -0.56771  -0.56251  -0.54420  -0.53966  -0.52512
 Alpha  occ. eigenvalues --   -0.51838  -0.51016  -0.50504  -0.49362  -0.48441
 Alpha  occ. eigenvalues --   -0.47479  -0.46949  -0.46504  -0.45555  -0.44292
 Alpha  occ. eigenvalues --   -0.43482  -0.42842  -0.41846  -0.40020  -0.37841
 Alpha virt. eigenvalues --    0.18279   0.20764   0.21826   0.23268   0.23717
 Alpha virt. eigenvalues --    0.24403   0.25019   0.25713   0.26310   0.27786
 Alpha virt. eigenvalues --    0.27942   0.28398   0.28738   0.29500   0.30070

 Mulliken atomic charges:
              1
     1  C    0.826354
     2  C   -0.309043
     3  C   -0.312809
     4  C   -0.312996
     5  C   -0.321221
     6  C   -0.302633
     7  C   -0.191452
     8  C   -0.297401
     9  C   -0.288215
    10  C   -0.697832
    11  C   -0.320557
    12  C   -0.079436
    13  N   -0.912321
    14  N   -0.672955
    15  O   -0.653851
    16  O   -0.692182
    17  O   -0.713498
    18  S    1.634103
    19  H    0.161082
    20  H    0.145206
    21  H    0.158315
    22  H    0.170389
    23  H    0.162394
    24  H    0.159392
    25  H    0.132560
    26  H    0.195410
    27  H    0.162378
    28  H    0.144086
    29  H    0.200933
    30  H    0.167130
    31  H    0.241027
    32  H    0.166338
    33  H    0.179607
    34  H    0.193777
    35  H    0.180466
    36  H    0.231194
    37  H    0.222010
    38  H    0.225480
    39  H    0.186775
    40  H    0.166328
    41  H    0.240136
    42  H    0.425531
 Sum of Mulliken atomic charges =   0.00000

 Dipole moment (field-independent basis, Debye):
    X=             -3.1450    Y=             -2.1210    Z=              1.9116  Tot=              4.2478
 Quadrupole moment (field-independent basis, Debye-Ang):
   XX=           -118.8733   YY=           -108.7407   ZZ=           -124.6214
   XY=             -5.0754   XZ=             -8.4928   YZ=             -2.7148

 1\1\GINC-NODE040\SP\RHF\6-31G(d)\C12H24N2O3S1\WULSDORT\17-Feb-2018\0\\
 #HF/6-31G* Geom=AllCheck Guess=Read Pop=(MK,ReadRadii) Integral=(Grid=
 UltraFine) iop(6/33=2)\\Optimization for frag26-conf0\\0,1\C,0,5.72238
 2881,-2.6627622413,-3.0195966582\C,0,-0.7217141709,-2.5850207343,-0.85
 46928172\C,0,0.4105809249,-1.7312038792,-0.2667101142\C,0,-0.242718723
 4,-4.0142206611,-1.147603334\C,0,1.6575426541,-1.740148942,-1.16561357
 93\C,0,1.0026966109,-4.0178603898,-2.0471661719\C,0,2.1497512789,-3.17
 16906286,-1.4560926989\C,0,6.7909633396,-1.6414241928,-4.9512692906\C,

 Normal termination of Gaussian 09 at Sat Feb 17 21:02:32 2018.
