 Gaussian 09, Revision C.01,
 Gaussian 09:  AM64L-G09RevC.01 23-Sep-2011

 ---------------------------------------------------------
 #B3LYP/6-31G* Integral=(Grid=UltraFine) freq Opt pop=none
 ---------------------------------------------------------

 99/9=1/99;
 -----------------------------
 Optimization for frag26-conf0
 -----------------------------
 Charge =  0 Multiplicity = 1

 SCF Done:  E(RB3LYP) =  -1205.04354570     A.U. after   14 cycles
 SCF Done:  E(RB3LYP) =  -1205.05089104     A.U. after   12 cycles
 SCF Done:  E(RB3LYP) =  -1205.05131523     A.U. after   14 cycles
 SCF Done:  E(RB3LYP) =  -1205.05207406     A.U. after   13 cycles
 SCF Done:  E(RB3LYP) =  -1205.05220042     A.U. after   12 cycles
 SCF Done:  E(RB3LYP) =  -1205.05251975     A.U. after   12 cycles
 SCF Done:  E(RB3LYP) =  -1205.05269423     A.U. after   12 cycles
 SCF Done:  E(RB3LYP) =  -1205.05276839     A.U. after   12 cycles
 SCF Done:  E(RB3LYP) =  -1205.05288139     A.U. after   11 cycles
 SCF Done:  E(RB3LYP) =  -1205.05290874     A.U. after   11 cycles
 SCF Done:  E(RB3LYP) =  -1205.05294436     A.U. after    9 cycles
 SCF Done:  E(RB3LYP) =  -1205.05294829     A.U. after    9 cycles
 SCF Done:  E(RB3LYP) =  -1205.05295240     A.U. after    9 cycles
 SCF Done:  E(RB3LYP) =  -1205.05295623     A.U. after    9 cycles
 SCF Done:  E(RB3LYP) =  -1205.05295870     A.U. after    9 cycles
 SCF Done:  E(RB3LYP) =  -1205.05295977     A.U. after    9 cycles
 SCF Done:  E(RB3LYP) =  -1205.05296008     A.U. after    8 cycles
 SCF Done:  E(RB3LYP) =  -1205.05296014     A.U. after    7 cycles
 SCF Done:  E(RB3LYP) =  -1205.05296017     A.U. after    6 cycles
 Optimization completed.
    -- Stationary point found.
 Normal termination of Gaussian 09 at Fri Feb 16 21:16:06 2018.

 --------------------------------------------------------------------
 #N Geom=AllCheck Guess=TCheck SCRF=Check GenChk RB3LYP/6-31G(d) Freq
 --------------------------------------------------------------------

 Structure from the checkpoint file:  frag26-conf0.chk
 -----------------------------
 Optimization for frag26-conf0
 -----------------------------
 Charge =  0 Multiplicity = 1

                         Standard orientation:
 ---------------------------------------------------------------------
 Center     Atomic      Atomic             Coordinates (Angstroms)
 Number     Number       Type             X           Y           Z
 ---------------------------------------------------------------------
      1          6           0       -2.382642   -0.789199   -0.475358
      2          6           0        4.331021   -1.417859    0.391107
      3          6           0        3.392018   -0.660705    1.340744
      4          6           0        3.975681   -1.140350   -1.076737
      5          6           0        1.914642   -0.966149    1.045641
      6          6           0        2.498766   -1.448282   -1.366884
      7          6           0        1.548371   -0.680726   -0.424168
      8          6           0       -4.217121   -2.332167   -0.062699
      9          6           0       -2.403048   -2.231442    1.591293
     10          6           0       -1.384961    3.745480    0.316953
     11          6           0        0.087297   -1.034849   -0.752454
     12          6           0       -1.019683   -0.180141   -0.083395
     13          7           0       -1.078459    1.211686   -0.544655
     14          7           0       -2.940871   -1.745736    0.329541
     15          8           0       -2.900435   -0.431909   -1.532659
     16          8           0        0.838403    2.922181   -0.827243
     17          8           0        0.232904    1.978307    1.467111
     18         16           0       -0.163306    2.433199    0.128053
     19          1           0        5.375401   -1.143380    0.588054
     20          1           0        4.249732   -2.498272    0.584980
     21          1           0        3.623333   -0.909300    2.384568
     22          1           0        3.557917    0.420557    1.233930
     23          1           0        4.173045   -0.082451   -1.302743
     24          1           0        4.619498   -1.727912   -1.744071
     25          1           0        1.714860   -2.029154    1.259989
     26          1           0        1.284353   -0.372565    1.716661
     27          1           0        2.261777   -1.205138   -2.411438
     28          1           0        2.323978   -2.529834   -1.251407
     29          1           0        1.700585    0.390959   -0.614279
     30          1           0       -4.116783   -3.418294   -0.184807
     31          1           0       -4.528255   -1.884886   -1.005198
     32          1           0       -4.977076   -2.139159    0.705723
     33          1           0       -3.027121   -1.907917    2.435923
     34          1           0       -1.385414   -1.884578    1.759533
     35          1           0       -2.385630   -3.328558    1.584983
     36          1           0       -0.864792    4.610734    0.734500
     37          1           0       -1.795692    3.993230   -0.663952
     38          1           0       -2.169633    3.401128    0.991453
     39          1           0       -0.074631   -0.971535   -1.837296
     40          1           0       -0.088996   -2.087704   -0.484528
     41          1           0       -0.877903   -0.130615    0.995514
     42          1           0       -1.253360    1.311510   -1.541065
 ---------------------------------------------------------------------

 SCF Done:  E(RB3LYP) =  -1205.05296017     A.U. after    1 cycles

 Isotropic polarizability for W=    0.000000      163.32 Bohr**3.
 End of Minotr Frequency-dependent properties file   721 does not exist.

                     1                      2                      3
                     A                      A                      A
 Frequencies --    23.5414                32.1456                39.9315
 Red. masses --     3.1047                 2.2565                 3.7642
 Frc consts  --     0.0010                 0.0014                 0.0035
 IR Inten    --     0.7873                 2.4731                 4.1424

                     4                      5                      6
                     A                      A                      A
 Frequencies --    43.4123                56.7003                58.1308
 Red. masses --     4.5440                 2.2157                 3.0952
 Frc consts  --     0.0050                 0.0042                 0.0062
 IR Inten    --     2.6274                 0.4457                 0.9152

                     7                      8                      9
                     A                      A                      A
 Frequencies --    79.6794                86.6390               125.3543
 Red. masses --     3.4737                 2.9484                 1.4598
 Frc consts  --     0.0130                 0.0130                 0.0135
 IR Inten    --     2.9692                 3.9849                 1.3601

                    10                     11                     12
                     A                      A                      A
 Frequencies --   140.3539               154.7073               173.3654
 Red. masses --     3.0144                 2.4140                 3.7991
 Frc consts  --     0.0350                 0.0340                 0.0673
 IR Inten    --     4.3962                 2.0778                 0.5618

                    13                     14                     15
                     A                      A                      A
 Frequencies --   217.5773               234.2545               237.0427
 Red. masses --     1.2855                 1.7896                 3.1507
 Frc consts  --     0.0359                 0.0579                 0.1043
 IR Inten    --     0.2031                 0.3258                 2.9367

                    16                     17                     18
                     A                      A                      A
 Frequencies --   247.2564               249.6137               261.4753
 Red. masses --     2.5011                 3.0860                 4.3565
 Frc consts  --     0.0901                 0.1133                 0.1755
 IR Inten    --     4.6005                 0.5934                 2.2562

                    19                     20                     21
                     A                      A                      A
 Frequencies --   298.5728               327.9993               335.6511
 Red. masses --     2.6409                 1.9515                 3.0729
 Frc consts  --     0.1387                 0.1237                 0.2040
 IR Inten    --    17.1275                 1.0641                 3.8614

                    22                     23                     24
                     A                      A                      A
 Frequencies --   369.0284               387.2138               425.8622
 Red. masses --     2.4227                 3.1360                 2.6559
 Frc consts  --     0.1944                 0.2770                 0.2838
 IR Inten    --    41.8801                 5.1980                 3.9945

                    25                     26                     27
                     A                      A                      A
 Frequencies --   438.9837               444.8165               449.5149
 Red. masses --     2.0996                 3.0981                 2.5812
 Frc consts  --     0.2384                 0.3612                 0.3073
 IR Inten    --     2.4511                 4.2897                 0.3647

                    28                     29                     30
                     A                      A                      A
 Frequencies --   479.2396               497.8829               521.7196
 Red. masses --     5.9224                 5.2708                 4.4099
 Frc consts  --     0.8014                 0.7698                 0.7072
 IR Inten    --     7.0098                91.2245                37.2633

                    31                     32                     33
                     A                      A                      A
 Frequencies --   547.7995               572.4875               638.9124
 Red. masses --     1.7742                 2.2118                 4.5855
 Frc consts  --     0.3137                 0.4271                 1.1029
 IR Inten    --     2.8014                47.2122                13.9957

                    34                     35                     36
                     A                      A                      A
 Frequencies --   731.9527               742.4378               786.3033
 Red. masses --     4.8857                 5.9176                 2.8564
 Frc consts  --     1.5422                 1.9218                 1.0405
 IR Inten    --     7.0428                29.5079                 0.2036

                    37                     38                     39
                     A                      A                      A
 Frequencies --   802.0942               807.8056               851.5413
 Red. masses --     1.6906                 2.3299                 2.7051
 Frc consts  --     0.6408                 0.8958                 1.1557
 IR Inten    --    11.7413                57.8866                 2.9242

                    40                     41                     42
                     A                      A                      A
 Frequencies --   859.9170               898.0548               910.9234
 Red. masses --     1.8567                 2.4927                 2.4174
 Frc consts  --     0.8089                 1.1845                 1.1818
 IR Inten    --    10.5865                 6.5534                18.6448

                    43                     44                     45
                     A                      A                      A
 Frequencies --   936.1077               939.8302               980.0775
 Red. masses --     1.4368                 2.0452                 2.4868
 Frc consts  --     0.7418                 1.0643                 1.4074
 IR Inten    --     2.2096                24.6218                 3.5736

                    46                     47                     48
                     A                      A                      A
 Frequencies --   983.0311               998.9300              1000.1585
 Red. masses --     2.9374                 1.5858                 1.3876
 Frc consts  --     1.6724                 0.9324                 0.8178
 IR Inten    --     6.7886                77.4981                 1.6516

                    49                     50                     51
                     A                      A                      A
 Frequencies --  1017.2410              1049.7450              1077.4030
 Red. masses --     2.0559                 1.8502                 1.4351
 Frc consts  --     1.2534                 1.2013                 0.9815
 IR Inten    --     2.4100                 0.5793                 0.6640

                    52                     53                     54
                     A                      A                      A
 Frequencies --  1087.4694              1097.4239              1105.9896
 Red. masses --     1.3915                 2.9548                 2.2873
 Frc consts  --     0.9695                 2.0967                 1.6485
 IR Inten    --     9.6266                88.9051                46.5238

                    55                     56                     57
                     A                      A                      A
 Frequencies --  1107.0848              1115.7533              1130.5782
 Red. masses --     1.4349                 2.5266                 5.9111
 Frc consts  --     1.0362                 1.8532                 4.4516
 IR Inten    --    25.1307                 7.8608               133.7563

                    58                     59                     60
                     A                      A                      A
 Frequencies --  1138.2112              1153.7979              1184.1917
 Red. masses --     1.2334                 1.8212                 1.5273
 Frc consts  --     0.9414                 1.4284                 1.2618
 IR Inten    --     1.4583                67.8735                 0.7134

                    61                     62                     63
                     A                      A                      A
 Frequencies --  1191.3014              1209.5574              1247.9558
 Red. masses --     1.9040                 1.4508                 1.3849
 Frc consts  --     1.5921                 1.2505                 1.2708
 IR Inten    --    12.6917                11.8825                11.6965

                    64                     65                     66
                     A                      A                      A
 Frequencies --  1269.7944              1288.4946              1300.6810
 Red. masses --     1.8482                 2.1072                 1.6697
 Frc consts  --     1.7557                 2.0612                 1.6643
 IR Inten    --     2.2197                25.7271                42.7843

                    67                     68                     69
                     A                      A                      A
 Frequencies --  1305.7767              1310.8228              1319.2539
 Red. masses --     1.5243                 1.3829                 1.9454
 Frc consts  --     1.5313                 1.4000                 1.9949
 IR Inten    --    15.8643                26.0672                82.1389

                    70                     71                     72
                     A                      A                      A
 Frequencies --  1342.3722              1353.1793              1372.4861
 Red. masses --     1.5424                 1.2835                 1.2187
 Frc consts  --     1.6376                 1.3847                 1.3525
 IR Inten    --    50.0702                 8.5532                 6.0076

                    73                     74                     75
                     A                      A                      A
 Frequencies --  1382.9052              1385.7335              1393.9212
 Red. masses --     1.2208                 1.3503                 1.3511
 Frc consts  --     1.3755                 1.5277                 1.5467
 IR Inten    --     6.4356                 1.9463                 1.5449

                    76                     77                     78
                     A                      A                      A
 Frequencies --  1401.3536              1403.3008              1411.8659
 Red. masses --     1.4777                 1.4908                 1.4076
 Frc consts  --     1.7098                 1.7297                 1.6532
 IR Inten    --     1.9050                 4.0208                 0.7867

                    79                     80                     81
                     A                      A                      A
 Frequencies --  1425.2742              1439.3739              1450.9256
 Red. masses --     1.5022                 1.9809                 1.1629
 Frc consts  --     1.7979                 2.4181                 1.4423
 IR Inten    --     1.2938               235.6980                 7.6606

                    82                     83                     84
                     A                      A                      A
 Frequencies --  1473.8068              1484.0093              1488.6814
 Red. masses --     1.5114                 1.0494                 1.0847
 Frc consts  --     1.9343                 1.3616                 1.4164
 IR Inten    --    26.4997                 3.9091                 5.3034

                    85                     86                     87
                     A                      A                      A
 Frequencies --  1500.8926              1506.3377              1511.1290
 Red. masses --     1.1462                 1.0956                 1.0864
 Frc consts  --     1.5212                 1.4648                 1.4617
 IR Inten    --    11.1372                 4.4292                 1.1383

                    88                     89                     90
                     A                      A                      A
 Frequencies --  1515.3197              1517.9326              1518.5523
 Red. masses --     1.0848                 1.0952                 1.0692
 Frc consts  --     1.4676                 1.4868                 1.4526
 IR Inten    --     1.5318                 1.3801                 8.4155

                    91                     92                     93
                     A                      A                      A
 Frequencies --  1521.9901              1531.7328              1532.6191
 Red. masses --     1.0824                 1.0669                 1.0503
 Frc consts  --     1.4772                 1.4749                 1.4536
 IR Inten    --     7.1968                10.7128                18.6967

                    94                     95                     96
                     A                      A                      A
 Frequencies --  1536.1270              1565.9679              1745.1162
 Red. masses --     1.1001                 1.2402                 9.3829
 Frc consts  --     1.5295                 1.7918                16.8358
 IR Inten    --     0.4653                31.7264               262.0292

                    97                     98                     99
                     A                      A                      A
 Frequencies --  2994.9302              3006.2603              3016.5729
 Red. masses --     1.0708                 1.0662                 1.0682
 Frc consts  --     5.6587                 5.6772                 5.7269
 IR Inten    --    19.7700                18.1034                22.4491

                   100                    101                    102
                     A                      A                      A
 Frequencies --  3019.2370              3026.9547              3030.8736
 Red. masses --     1.0643                 1.0627                 1.0418
 Frc consts  --     5.7160                 5.7370                 5.6387
 IR Inten    --    36.2412                21.1187                24.6919

                   103                    104                    105
                     A                      A                      A
 Frequencies --  3032.8798              3038.6693              3043.7760
 Red. masses --     1.0621                 1.0408                 1.0807
 Frc consts  --     5.7559                 5.6623                 5.8988
 IR Inten    --    18.8102                90.5395                25.8437

                   106                    107                    108
                     A                      A                      A
 Frequencies --  3057.4398              3066.6886              3067.1927
 Red. masses --     1.0972                 1.0979                 1.0920
 Frc consts  --     6.0430                 6.0833                 6.0528
 IR Inten    --     9.8369                58.9931                73.1086

                   109                    110                    111
                     A                      A                      A
 Frequencies --  3069.8663              3076.9451              3079.4119
 Red. masses --     1.1030                 1.1036                 1.1019
 Frc consts  --     6.1246                 6.1563                 6.1566
 IR Inten    --    22.3480                93.8877                42.9959

                   112                    113                    114
                     A                      A                      A
 Frequencies --  3084.8547              3086.5442              3094.4633
 Red. masses --     1.1050                 1.0296                 1.0919
 Frc consts  --     6.1955                 5.7793                 6.1601
 IR Inten    --    18.7611                 0.8147                28.7619

                   115                    116                    117
                     A                      A                      A
 Frequencies --  3152.8439              3182.3331              3195.2992
 Red. masses --     1.0857                 1.1064                 1.0935
 Frc consts  --     6.3585                 6.6016                 6.5783
 IR Inten    --    12.8842                 1.0629                 5.0525

                   118                    119                    120
                     A                      A                      A
 Frequencies --  3196.9354              3197.4942              3560.3398
 Red. masses --     1.0953                 1.1079                 1.0749
 Frc consts  --     6.5954                 6.6740                 8.0280
 IR Inten    --     5.2427                 1.1762                40.8801

 - Thermochemistry -
 -------------------
 Temperature   298.150 Kelvin.  Pressure   1.00000 Atm.
 Atom     1 has atomic number  6 and mass  12.00000

 Molecular mass:   276.15076 amu.
 Principal axes and moments of inertia in atomic units:
                           1         2         3
     Eigenvalues --  4377.361166590.983539164.87995
           X            0.99985  -0.01525  -0.00874
           Y            0.01519   0.99985  -0.00774
           Z            0.00886   0.00760   0.99993
 This molecule is an asymmetric top.
 Rotational symmetry number  1.
 Warning -- assumption of classical behavior for rotation
           may cause significant error
 Rotational temperatures (Kelvin)      0.01979     0.01314     0.00945
 Rotational constants (GHZ):           0.41229     0.27382     0.19692
 Zero-point vibrational energy     964347.2 (Joules/Mol)
                                  230.48452 (Kcal/Mol)
 Warning -- explicit consideration of  32 degrees of freedom as
           vibrations may cause significant error
 Vibrational temperatures:     33.87    46.25    57.45    62.46    81.58
          (Kelvin)             83.64   114.64   124.65   180.36   201.94
                              222.59   249.43   313.04   337.04   341.05
                              355.75   359.14   376.20   429.58   471.92
                              482.93   530.95   557.11   612.72   631.60
                              639.99   646.75   689.52   716.34   750.64
                              788.16   823.68   919.25  1053.12  1068.20
                             1131.31  1154.03  1162.25  1225.18  1237.23
                             1292.10  1310.61  1346.85  1352.20  1410.11
                             1414.36  1437.24  1439.00  1463.58  1510.35
                             1550.14  1564.62  1578.95  1591.27  1592.85
                             1605.32  1626.65  1637.63  1660.06  1703.79
                             1714.01  1740.28  1795.53  1826.95  1853.85
                             1871.39  1878.72  1885.98  1898.11  1931.37
                             1946.92  1974.70  1989.69  1993.76  2005.54
                             2016.23  2019.03  2031.36  2050.65  2070.94
                             2087.56  2120.48  2135.16  2141.88  2159.45
                             2167.28  2174.17  2180.20  2183.96  2184.86
                             2189.80  2203.82  2205.09  2210.14  2253.08
                             2510.83  4309.03  4325.33  4340.17  4344.00
                             4355.11  4360.75  4363.63  4371.96  4379.31
                             4398.97  4412.28  4413.00  4416.85  4427.03
                             4430.58  4438.41  4440.84  4452.24  4536.23
                             4578.66  4597.32  4599.67  4600.48  5122.53

 Zero-point correction=                           0.367300 (Hartree/Particle)
 Thermal correction to Energy=                    0.387961
 Thermal correction to Enthalpy=                  0.388906
 Thermal correction to Gibbs Free Energy=         0.315771
 Sum of electronic and zero-point Energies=          -1204.685660
 Sum of electronic and thermal Energies=             -1204.664999
 Sum of electronic and thermal Enthalpies=           -1204.664055
 Sum of electronic and thermal Free Energies=        -1204.737189

                     E (Thermal)             CV                S
                      KCal/Mol        Cal/Mol-Kelvin    Cal/Mol-Kelvin
 Total                  243.449             75.616            153.925
 Electronic               0.000              0.000              0.000
 Translational            0.889              2.981             42.746
 Rotational               0.889              2.981             33.935
 Vibrational            241.672             69.654             77.244
 Vibration     1          0.593              1.985              6.311
 Vibration     2          0.594              1.983              5.692
 Vibration     3          0.594              1.981              5.262
 Vibration     4          0.595              1.980              5.097
 Vibration     5          0.596              1.975              4.569
 Vibration     6          0.596              1.974              4.520
 Vibration     7          0.600              1.963              3.899
 Vibration     8          0.601              1.959              3.735
 Vibration     9          0.610              1.928              3.016
 Vibration    10          0.615              1.913              2.799
 Vibration    11          0.620              1.897              2.614
 Vibration    12          0.627              1.875              2.399
 Vibration    13          0.646              1.814              1.979
 Vibration    14          0.654              1.788              1.846
 Vibration    15          0.656              1.784              1.825
 Vibration    16          0.661              1.767              1.750
 Vibration    17          0.662              1.763              1.733
 Vibration    18          0.669              1.743              1.652
 Vibration    19          0.692              1.676              1.425
 Vibration    20          0.711              1.620              1.270
 Vibration    21          0.717              1.604              1.233
 Vibration    22          0.741              1.536              1.084
 Vibration    23          0.756              1.497              1.011
 Vibration    24          0.788              1.414              0.872
 Vibration    25          0.799              1.385              0.830
 Vibration    26          0.804              1.372              0.812
 Vibration    27          0.808              1.362              0.797
 Vibration    28          0.836              1.296              0.712
 Vibration    29          0.853              1.255              0.663
 Vibration    30          0.877              1.202              0.606
 Vibration    31          0.903              1.145              0.549
 Vibration    32          0.929              1.091              0.499

 Normal termination of Gaussian 09 at Fri Feb 16 22:51:29 2018.
