 Gaussian 09, Revision C.01,
 Gaussian 09:  AM64L-G09RevC.01 23-Sep-2011

 ---------------------------------------------------------
 #B3LYP/6-31G* Integral=(Grid=UltraFine) freq Opt pop=none
 ---------------------------------------------------------

 99/9=1/99;
 -----------------------------
 Optimization for frag15-conf0
 -----------------------------
 Charge =  0 Multiplicity = 1

 SCF Done:  E(RB3LYP) =  -248.521506910     A.U. after   14 cycles
 SCF Done:  E(RB3LYP) =  -248.522834329     A.U. after   11 cycles
 SCF Done:  E(RB3LYP) =  -248.522956195     A.U. after   11 cycles
 SCF Done:  E(RB3LYP) =  -248.522975243     A.U. after    9 cycles
 SCF Done:  E(RB3LYP) =  -248.523014369     A.U. after   10 cycles
 SCF Done:  E(RB3LYP) =  -248.523062329     A.U. after   10 cycles
 SCF Done:  E(RB3LYP) =  -248.523144818     A.U. after   11 cycles
 SCF Done:  E(RB3LYP) =  -248.523202462     A.U. after   11 cycles
 SCF Done:  E(RB3LYP) =  -248.523222306     A.U. after   10 cycles
 SCF Done:  E(RB3LYP) =  -248.523292580     A.U. after   11 cycles
 SCF Done:  E(RB3LYP) =  -248.523422859     A.U. after   11 cycles
 SCF Done:  E(RB3LYP) =  -248.523471493     A.U. after   12 cycles
 SCF Done:  E(RB3LYP) =  -248.523495212     A.U. after    9 cycles
 SCF Done:  E(RB3LYP) =  -248.523508496     A.U. after   10 cycles
 SCF Done:  E(RB3LYP) =  -248.523520565     A.U. after    9 cycles
 SCF Done:  E(RB3LYP) =  -248.523549719     A.U. after   11 cycles
 SCF Done:  E(RB3LYP) =  -248.523560365     A.U. after   10 cycles
 SCF Done:  E(RB3LYP) =  -248.523562374     A.U. after    9 cycles
 SCF Done:  E(RB3LYP) =  -248.523562512     A.U. after    7 cycles
 Optimization completed.
    -- Stationary point found.
 Normal termination of Gaussian 09 at Fri Feb 16 18:18:56 2018.

 --------------------------------------------------------------------
 #N Geom=AllCheck Guess=TCheck SCRF=Check GenChk RB3LYP/6-31G(d) Freq
 --------------------------------------------------------------------

 Structure from the checkpoint file:  frag15-conf0.chk
 -----------------------------
 Optimization for frag15-conf0
 -----------------------------
 Charge =  0 Multiplicity = 1

                         Standard orientation:
 ---------------------------------------------------------------------
 Center     Atomic      Atomic             Coordinates (Angstroms)
 Number     Number       Type             X           Y           Z
 ---------------------------------------------------------------------
      1          6           0       -0.483318    0.168020   -0.000032
      2          6           0       -1.817194   -0.566671    0.000048
      3          6           0        1.975442   -0.103467    0.000064
      4          7           0        0.625327   -0.635191   -0.000180
      5          8           0       -0.421901    1.391149   -0.000007
      6          1           0       -2.387925   -0.259206    0.881656
      7          1           0       -2.388408   -0.258418   -0.880971
      8          1           0       -1.725773   -1.657814   -0.000455
      9          1           0        1.892112    0.984316   -0.001009
     10          1           0        2.529949   -0.422259   -0.890902
     11          1           0        2.529038   -0.420447    0.892269
     12          1           0        0.499340   -1.636317    0.000253
 ---------------------------------------------------------------------

 SCF Done:  E(RB3LYP) =  -248.523562512     A.U. after    1 cycles

 Isotropic polarizability for W=    0.000000       41.33 Bohr**3.
 End of Minotr Frequency-dependent properties file   721 does not exist.

                     1                      2                      3
                     A                      A                      A
 Frequencies --    55.6530                79.8252               164.3633
 Red. masses --     1.0722                 1.1238                 2.7681
 Frc consts  --     0.0020                 0.0042                 0.0441
 IR Inten    --     2.8978                 0.0454                11.6799

                     4                      5                      6
                     A                      A                      A
 Frequencies --   290.3502               433.6146               436.9417
 Red. masses --     3.0998                 3.1499                 1.1796
 Frc consts  --     0.1540                 0.3489                 0.1327
 IR Inten    --     7.0412                11.0478                94.4264

                     7                      8                      9
                     A                      A                      A
 Frequencies --   623.7730               633.5520               875.6890
 Red. masses --     3.9182                 2.2786                 2.6971
 Frc consts  --     0.8982                 0.5389                 1.2186
 IR Inten    --     2.0875                 1.3895                 7.1309

                    10                     11                     12
                     A                      A                      A
 Frequencies --  1004.0196              1065.8109              1117.2735
 Red. masses --     1.7652                 1.6870                 2.9485
 Frc consts  --     1.0484                 1.1291                 2.1685
 IR Inten    --     6.7512                 9.8589                 0.8701

                    13                     14                     15
                     A                      A                      A
 Frequencies --  1164.1869              1179.1222              1282.8674
 Red. masses --     1.2808                 1.7281                 2.0007
 Frc consts  --     1.0228                 1.4156                 1.9400
 IR Inten    --     0.3490                40.8043               110.4383

                    16                     17                     18
                     A                      A                      A
 Frequencies --  1425.7611              1458.1337              1501.4696
 Red. masses --     1.2466                 1.1720                 1.0455
 Frc consts  --     1.4930                 1.4682                 1.3887
 IR Inten    --    20.8859                16.4798                 5.6725

                    19                     20                     21
                     A                      A                      A
 Frequencies --  1514.8651              1522.1342              1530.8558
 Red. masses --     1.1149                 1.1540                 1.0451
 Frc consts  --     1.5075                 1.5753                 1.4431
 IR Inten    --    43.8422                41.0912                 6.4265

                    22                     23                     24
                     A                      A                      A
 Frequencies --  1582.1999              1791.3335              3043.5589
 Red. masses --     1.6322                 8.9392                 1.0371
 Frc consts  --     2.4074                16.9005                 5.6604
 IR Inten    --   128.6846               240.1047                60.2736

                    25                     26                     27
                     A                      A                      A
 Frequencies --  3062.5212              3093.6714              3136.9269
 Red. masses --     1.0362                 1.1060                 1.1032
 Frc consts  --     5.7257                 6.2365                 6.3959
 IR Inten    --    10.3289                38.8500                21.7775

                    28                     29                     30
                     A                      A                      A
 Frequencies --  3141.4506              3174.1631              3637.5545
 Red. masses --     1.1011                 1.0976                 1.0775
 Frc consts  --     6.4025                 6.5153                 8.4003
 IR Inten    --     6.9896                 0.9961                16.3311

 - Thermochemistry -
 -------------------
 Temperature   298.150 Kelvin.  Pressure   1.00000 Atm.
 Atom     1 has atomic number  6 and mass  12.00000

 Molecular mass:    73.05276 amu.
 Principal axes and moments of inertia in atomic units:
                           1         2         3
     Eigenvalues --   181.20975 471.72573 630.31009
           X            0.99935   0.03615   0.00000
           Y           -0.03615   0.99935  -0.00001
           Z            0.00000   0.00001   1.00000
 This molecule is an asymmetric top.
 Rotational symmetry number  1.
 Rotational temperatures (Kelvin)      0.47798     0.18361     0.13741
 Rotational constants (GHZ):           9.95940     3.82583     2.86326
 Zero-point vibrational energy     269301.2 (Joules/Mol)
                                   64.36453 (Kcal/Mol)
 Warning -- explicit consideration of   6 degrees of freedom as
           vibrations may cause significant error
 Vibrational temperatures:     80.07   114.85   236.48   417.75   623.87
          (Kelvin)            628.66   897.47   911.54  1259.92  1444.56
                             1533.46  1607.51  1675.00  1696.49  1845.76
                             2051.35  2097.93  2160.28  2179.55  2190.01
                             2202.56  2276.43  2577.33  4379.00  4406.28
                             4451.10  4513.33  4519.84  4566.91  5233.62

 Zero-point correction=                           0.102571 (Hartree/Particle)
 Thermal correction to Energy=                    0.109128
 Thermal correction to Enthalpy=                  0.110072
 Thermal correction to Gibbs Free Energy=         0.072148
 Sum of electronic and zero-point Energies=           -248.420991
 Sum of electronic and thermal Energies=              -248.414435
 Sum of electronic and thermal Enthalpies=            -248.413491
 Sum of electronic and thermal Free Energies=         -248.451415

                     E (Thermal)             CV                S
                      KCal/Mol        Cal/Mol-Kelvin    Cal/Mol-Kelvin
 Total                   68.479             20.844             79.818
 Electronic               0.000              0.000              0.000
 Translational            0.889              2.981             38.782
 Rotational               0.889              2.981             25.491
 Vibrational             66.701             14.883             15.545
 Vibration     1          0.596              1.975              4.606
 Vibration     2          0.600              1.963              3.895
 Vibration     3          0.623              1.886              2.499
 Vibration     4          0.686              1.692              1.472
 Vibration     5          0.794              1.397              0.847
 Vibration     6          0.797              1.390              0.836

 Optimization completed.
    -- Stationary point found.
 Normal termination of Gaussian 09 at Fri Feb 16 18:21:00 2018.
