 Gaussian 09, Revision C.01,
 Gaussian 09:  AM64L-G09RevC.01 23-Sep-2011

 ----------------------------------------------------------------------
 #HF/6-31G* Geom=AllCheck Guess=Read Pop=(MK,ReadRadii) Integral=(Grid=
 UltraFine) iop(6/33=2)
 ----------------------------------------------------------------------

 Structure from the checkpoint file:  frag15-conf0.chk
 -----------------------------
 Optimization for frag15-conf0
 -----------------------------
 Charge =  0 Multiplicity = 1

                         Standard orientation:
 ---------------------------------------------------------------------
 Center     Atomic      Atomic             Coordinates (Angstroms)
 Number     Number       Type             X           Y           Z
 ---------------------------------------------------------------------
      1          6           0       -0.483318    0.168020   -0.000032
      2          6           0       -1.817194   -0.566671    0.000048
      3          6           0        1.975442   -0.103467    0.000064
      4          7           0        0.625327   -0.635191   -0.000180
      5          8           0       -0.421901    1.391149   -0.000007
      6          1           0       -2.387925   -0.259206    0.881656
      7          1           0       -2.388408   -0.258418   -0.880971
      8          1           0       -1.725773   -1.657814   -0.000455
      9          1           0        1.892112    0.984316   -0.001009
     10          1           0        2.529949   -0.422259   -0.890902
     11          1           0        2.529038   -0.420447    0.892269
     12          1           0        0.499340   -1.636317    0.000253
 ---------------------------------------------------------------------

 SCF Done:  E(RHF) =  -247.003602947     A.U. after   12 cycles

 The electronic state is 1-A.
 Alpha  occ. eigenvalues --  -20.51559 -15.58891 -11.35129 -11.25824 -11.23787
 Alpha  occ. eigenvalues --   -1.36820  -1.22238  -1.01225  -0.92748  -0.78353
 Alpha  occ. eigenvalues --   -0.68607  -0.64529  -0.62608  -0.58269  -0.57562
 Alpha  occ. eigenvalues --   -0.55126  -0.54106  -0.49958  -0.41302  -0.38372
 Alpha virt. eigenvalues --    0.20172   0.21455   0.26311   0.28127   0.31492
 Alpha virt. eigenvalues --    0.32247   0.32510   0.33512   0.37441   0.42105
 Alpha virt. eigenvalues --    0.48964   0.61449   0.72891   0.73495   0.74756

 Mulliken atomic charges:
              1
     1  C    0.756020
     2  C   -0.576496
     3  C   -0.287792
     4  N   -0.792831
     5  O   -0.624706
     6  H    0.207848
     7  H    0.207867
     8  H    0.162810
     9  H    0.232775
    10  H    0.166635
    11  H    0.166623
    12  H    0.381247
 Sum of Mulliken atomic charges =   0.00000

 Dipole moment (field-independent basis, Debye):
    X=              0.5341    Y=             -3.9610    Z=              0.0009  Tot=              3.9969
 Quadrupole moment (field-independent basis, Debye-Ang):
   XX=            -26.6946   YY=            -33.5682   ZZ=            -31.1147
   XY=              1.4961   XZ=              0.0000   YZ=             -0.0016

 Normal termination of Gaussian 09 at Sat Feb 17 20:56:15 2018.
