 Gaussian 09, Revision C.01,
 Gaussian 09:  AM64L-G09RevC.01 23-Sep-2011

 ---------------------------------------------------------
 #B3LYP/6-31G* Integral=(Grid=UltraFine) freq Opt pop=none
 ---------------------------------------------------------

 99/9=1/99;
 -----------------------------
 Optimization for frag17-conf2
 -----------------------------
 Charge =  0 Multiplicity = 1

 SCF Done:  E(RB3LYP) =  -495.608064224     A.U. after   15 cycles
 SCF Done:  E(RB3LYP) =  -495.609890841     A.U. after   12 cycles
 SCF Done:  E(RB3LYP) =  -495.610065183     A.U. after   12 cycles
 SCF Done:  E(RB3LYP) =  -495.610112863     A.U. after   12 cycles
 SCF Done:  E(RB3LYP) =  -495.610153113     A.U. after   13 cycles
 SCF Done:  E(RB3LYP) =  -495.610220670     A.U. after   14 cycles
 SCF Done:  E(RB3LYP) =  -495.610337360     A.U. after   16 cycles
 SCF Done:  E(RB3LYP) =  -495.610369589     A.U. after   12 cycles
 SCF Done:  E(RB3LYP) =  -495.610496983     A.U. after   12 cycles
 SCF Done:  E(RB3LYP) =  -495.610289499     A.U. after   14 cycles
 SCF Done:  E(RB3LYP) =  -495.612998404     A.U. after   13 cycles
 SCF Done:  E(RB3LYP) =  -495.613008798     A.U. after   10 cycles
 SCF Done:  E(RB3LYP) =  -495.613016379     A.U. after   10 cycles
 SCF Done:  E(RB3LYP) =  -495.613022007     A.U. after   10 cycles
 SCF Done:  E(RB3LYP) =  -495.613026381     A.U. after   10 cycles
 SCF Done:  E(RB3LYP) =  -495.613028991     A.U. after    9 cycles
 SCF Done:  E(RB3LYP) =  -495.613031207     A.U. after    9 cycles
 SCF Done:  E(RB3LYP) =  -495.613031578     A.U. after    8 cycles
 SCF Done:  E(RB3LYP) =  -495.613031624     A.U. after    7 cycles
 Optimization completed.
    -- Stationary point found.
 Normal termination of Gaussian 09 at Fri Feb 16 19:17:14 2018.

 --------------------------------------------------------------------
 #N Geom=AllCheck Guess=TCheck SCRF=Check GenChk RB3LYP/6-31G(d) Freq
 --------------------------------------------------------------------

 Structure from the checkpoint file:  frag17-conf2.chk
 -----------------------------
 Optimization for frag17-conf2
 -----------------------------
 Charge =  0 Multiplicity = 1

                         Standard orientation:
 ---------------------------------------------------------------------
 Center     Atomic      Atomic             Coordinates (Angstroms)
 Number     Number       Type             X           Y           Z
 ---------------------------------------------------------------------
      1          6           0        2.159860    1.494155    0.040757
      2          6           0        0.949410    0.944332   -0.371323
      3          6           0        3.183980    0.633679    0.445112
      4          6           0        1.896522   -1.210090    0.056300
      5          6           0        0.801935   -0.449062   -0.365533
      6          6           0       -2.475756    0.143847    0.006270
      7          6           0       -3.532225    0.258846    1.094736
      8          6           0       -0.494890   -1.107586   -0.791737
      9          7           0        3.067393   -0.698721    0.456541
     10          7           0       -1.599607   -0.898748    0.141945
     11          8           0       -2.426416    0.929904   -0.934213
     12          1           0        2.313578    2.569453    0.046259
     13          1           0        0.123605    1.571453   -0.696524
     14          1           0        4.142586    1.032953    0.773184
     15          1           0        1.825968   -2.298803    0.068465
     16          1           0       -3.404052    1.214638    1.612893
     17          1           0       -4.519108    0.274054    0.623086
     18          1           0       -3.501342   -0.551249    1.830047
     19          1           0       -0.829420   -0.702753   -1.750347
     20          1           0       -0.345823   -2.186221   -0.911903
     21          1           0       -1.602175   -1.429210    1.001641
 ---------------------------------------------------------------------

 SCF Done:  E(RB3LYP) =  -495.613031624     A.U. after    1 cycles

 Isotropic polarizability for W=    0.000000       92.74 Bohr**3.
 End of Minotr Frequency-dependent properties file   721 does not exist.

                     1                      2                      3
                     A                      A                      A
 Frequencies --    33.9159                48.7306                63.0910
 Red. masses --     3.3264                 1.4705                 4.6900
 Frc consts  --     0.0023                 0.0021                 0.0110
 IR Inten    --     3.1873                 3.9953                14.6202

                     4                      5                      6
                     A                      A                      A
 Frequencies --    72.9665               178.4064               224.5608
 Red. masses --     2.3943                 4.3664                 5.6687
 Frc consts  --     0.0075                 0.0819                 0.1684
 IR Inten    --     0.2831                 2.8833                 5.7282

                     7                      8                      9
                     A                      A                      A
 Frequencies --   300.3690               340.2549               411.3234
 Red. masses --     4.0338                 2.0428                 3.0551
 Frc consts  --     0.2144                 0.1393                 0.3045
 IR Inten    --     0.3839                 3.0382                 0.8020

                    10                     11                     12
                     A                      A                      A
 Frequencies --   437.8473               442.6961               504.9817
 Red. masses --     2.7974                 1.2895                 4.2135
 Frc consts  --     0.3160                 0.1489                 0.6331
 IR Inten    --    15.7822                97.9794                 7.8175

                    13                     14                     15
                     A                      A                      A
 Frequencies --   604.9778               617.8456               644.2805
 Red. masses --     4.3471                 3.0968                 5.0192
 Frc consts  --     0.9374                 0.6965                 1.2275
 IR Inten    --    12.6593                 0.5833                 2.7460

                    16                     17                     18
                     A                      A                      A
 Frequencies --   666.2352               737.2288               814.3029
 Red. masses --     3.9219                 2.0759                 2.4821
 Frc consts  --     1.0256                 0.6648                 0.9697
 IR Inten    --     3.2464                23.6539                12.4855

                    19                     20                     21
                     A                      A                      A
 Frequencies --   850.5280               854.5873               950.1827
 Red. masses --     2.5481                 2.5420                 1.3507
 Frc consts  --     1.0861                 1.0938                 0.7185
 IR Inten    --     8.9444                 2.9017                 0.3661

                    22                     23                     24
                     A                      A                      A
 Frequencies --   979.8184              1000.1858              1014.8922
 Red. masses --     1.4418                 1.6345                 1.3801
 Frc consts  --     0.8156                 0.9634                 0.8376
 IR Inten    --     1.2020                 2.8541                 2.1522

                    25                     26                     27
                     A                      A                      A
 Frequencies --  1030.6766              1048.1263              1068.2641
 Red. masses --     2.8773                 3.7697                 1.7218
 Frc consts  --     1.8009                 2.4400                 1.1577
 IR Inten    --     0.3995                19.6387                 8.1399

                    28                     29                     30
                     A                      A                      A
 Frequencies --  1070.6785              1101.0934              1153.4710
 Red. masses --     2.5700                 3.0916                 1.4539
 Frc consts  --     1.7358                 2.2084                 1.1397
 IR Inten    --     2.6380                11.5616                 6.1904

                    31                     32                     33
                     A                      A                      A
 Frequencies --  1226.5438              1252.6323              1268.2464
 Red. masses --     1.8788                 1.8767                 1.5375
 Frc consts  --     1.6654                 1.7350                 1.4570
 IR Inten    --     7.0934                 1.1743                29.2782

                    34                     35                     36
                     A                      A                      A
 Frequencies --  1291.4049              1325.6725              1386.0862
 Red. masses --     2.3801                 2.4419                 1.2215
 Frc consts  --     2.3386                 2.5284                 1.3827
 IR Inten    --   100.0303                26.4418                 8.3567

                    37                     38                     39
                     A                      A                      A
 Frequencies --  1403.8940              1426.7183              1475.4154
 Red. masses --     1.2858                 1.2587                 2.2862
 Frc consts  --     1.4932                 1.5095                 2.9322
 IR Inten    --    12.3942                22.0044                26.5918

                    40                     41                     42
                     A                      A                      A
 Frequencies --  1497.6755              1500.9943              1515.3862
 Red. masses --     1.1096                 1.0495                 1.0695
 Frc consts  --     1.4664                 1.3931                 1.4471
 IR Inten    --    16.0740                 4.1446                17.9431

                    43                     44                     45
                     A                      A                      A
 Frequencies --  1527.7191              1556.0613              1629.8725
 Red. masses --     2.1486                 1.8917                 5.1558
 Frc consts  --     2.9546                 2.6987                 8.0697
 IR Inten    --     8.0122               207.2991                11.5970

                    46                     47                     48
                     A                      A                      A
 Frequencies --  1650.8343              1775.4987              3064.9198
 Red. masses --     5.4622                 8.9553                 1.0356
 Frc consts  --     8.7706                16.6330                 5.7319
 IR Inten    --     4.3996               199.3179                 8.0534

                    49                     50                     51
                     A                      A                      A
 Frequencies --  3072.3295              3133.2252              3138.0869
 Red. masses --     1.0642                 1.1006                 1.1028
 Frc consts  --     5.9185                 6.3658                 6.3984
 IR Inten    --    28.1169                 0.9949                13.4467

                    52                     53                     54
                     A                      A                      A
 Frequencies --  3145.1784              3147.3831              3171.1890
 Red. masses --     1.1022                 1.0896                 1.0891
 Frc consts  --     6.4239                 6.3593                 6.4533
 IR Inten    --    10.5007                36.6658                20.8543

                    55                     56                     57
                     A                      A                      A
 Frequencies --  3200.4803              3214.2421              3624.7368
 Red. masses --     1.0903                 1.0966                 1.0778
 Frc consts  --     6.5798                 6.6750                 8.3432
 IR Inten    --    10.7858                10.1889                16.7743

 - Thermochemistry -
 -------------------
 Temperature   298.150 Kelvin.  Pressure   1.00000 Atm.
 Atom     1 has atomic number  6 and mass  12.00000

 Molecular mass:   150.07931 amu.
 Principal axes and moments of inertia in atomic units:
                           1         2         3
     Eigenvalues --   684.732733064.954823343.36083
           X            0.99984   0.01007  -0.01478
           Y           -0.00961   0.99946   0.03145
           Z            0.01509  -0.03130   0.99940
 This molecule is an asymmetric top.
 Rotational symmetry number  1.
 Warning -- assumption of classical behavior for rotation
           may cause significant error
 Rotational temperatures (Kelvin)      0.12649     0.02826     0.02591
 Rotational constants (GHZ):           2.63569     0.58883     0.53980
 Zero-point vibrational energy     453916.7 (Joules/Mol)
                                  108.48869 (Kcal/Mol)
 Warning -- explicit consideration of  14 degrees of freedom as
           vibrations may cause significant error
 Vibrational temperatures:     48.80    70.11    90.77   104.98   256.69
          (Kelvin)            323.09   432.16   489.55   591.80   629.96
                              636.94   726.56   870.43   888.94   926.97
                              958.56  1060.71  1171.60  1223.72  1229.56
                             1367.10  1409.74  1439.04  1460.20  1482.91
                             1508.02  1536.99  1540.47  1584.23  1659.59
                             1764.72  1802.26  1824.72  1858.04  1907.34
                             1994.27  2019.89  2052.73  2122.79  2154.82
                             2159.59  2180.30  2198.04  2238.82  2345.02
                             2375.18  2554.54  4409.73  4420.39  4508.01
                             4515.00  4525.20  4528.38  4562.63  4604.77
                             4624.57  5215.18

 Zero-point correction=                           0.172888 (Hartree/Particle)
 Thermal correction to Energy=                    0.183311
 Thermal correction to Enthalpy=                  0.184255
 Thermal correction to Gibbs Free Energy=         0.134963
 Sum of electronic and zero-point Energies=           -495.440144
 Sum of electronic and thermal Energies=              -495.429721
 Sum of electronic and thermal Enthalpies=            -495.428777
 Sum of electronic and thermal Free Energies=         -495.478068

                     E (Thermal)             CV                S
                      KCal/Mol        Cal/Mol-Kelvin    Cal/Mol-Kelvin
 Total                  115.029             37.678            103.743
 Electronic               0.000              0.000              0.000
 Translational            0.889              2.981             40.928
 Rotational               0.889              2.981             30.329
 Vibrational            113.252             31.716             32.485
 Vibration     1          0.594              1.983              5.586
 Vibration     2          0.595              1.978              4.868
 Vibration     3          0.597              1.972              4.358
 Vibration     4          0.599              1.967              4.072
 Vibration     5          0.629              1.869              2.345
 Vibration     6          0.649              1.804              1.922
 Vibration     7          0.693              1.673              1.415
 Vibration     8          0.720              1.595              1.211
 Vibration     9          0.775              1.446              0.922
 Vibration    10          0.798              1.388              0.833
 Vibration    11          0.802              1.377              0.818
 Vibration    12          0.860              1.239              0.646
 Vibration    13          0.964              1.021              0.441
 Vibration    14          0.978              0.994              0.420

 Optimization completed.
    -- Stationary point found.
 Normal termination of Gaussian 09 at Fri Feb 16 19:35:42 2018.
