 Gaussian 09, Revision C.01,
 Gaussian 09:  AM64L-G09RevC.01 23-Sep-2011

 ----------------------------------------------------------------------
 #HF/6-31G* Geom=AllCheck Guess=Read Pop=(MK,ReadRadii) Integral=(Grid=
 UltraFine) iop(6/33=2)
 ----------------------------------------------------------------------

 Structure from the checkpoint file:  frag17-conf2.chk
 -----------------------------
 Optimization for frag17-conf2
 -----------------------------
 Charge =  0 Multiplicity = 1

                         Standard orientation:
 ---------------------------------------------------------------------
 Center     Atomic      Atomic             Coordinates (Angstroms)
 Number     Number       Type             X           Y           Z
 ---------------------------------------------------------------------
      1          6           0        2.159860    1.494155    0.040757
      2          6           0        0.949410    0.944332   -0.371323
      3          6           0        3.183980    0.633679    0.445112
      4          6           0        1.896522   -1.210090    0.056300
      5          6           0        0.801935   -0.449062   -0.365533
      6          6           0       -2.475756    0.143847    0.006270
      7          6           0       -3.532225    0.258846    1.094736
      8          6           0       -0.494890   -1.107586   -0.791737
      9          7           0        3.067393   -0.698721    0.456541
     10          7           0       -1.599607   -0.898748    0.141945
     11          8           0       -2.426416    0.929904   -0.934213
     12          1           0        2.313578    2.569453    0.046259
     13          1           0        0.123605    1.571453   -0.696524
     14          1           0        4.142586    1.032953    0.773184
     15          1           0        1.825968   -2.298803    0.068465
     16          1           0       -3.404052    1.214638    1.612893
     17          1           0       -4.519108    0.274054    0.623086
     18          1           0       -3.501342   -0.551249    1.830047
     19          1           0       -0.829420   -0.702753   -1.750347
     20          1           0       -0.345823   -2.186221   -0.911903
     21          1           0       -1.602175   -1.429210    1.001641
 ---------------------------------------------------------------------

 SCF Done:  E(RHF) =  -492.543932173     A.U. after   14 cycles

 The electronic state is 1-A.
 Alpha  occ. eigenvalues --  -20.52754 -15.59741 -15.56717 -11.36144 -11.27927
 Alpha  occ. eigenvalues --  -11.27382 -11.27354 -11.25371 -11.24650 -11.24473
 Alpha  occ. eigenvalues --  -11.24120  -1.37926  -1.25429  -1.23341  -1.09283
 Alpha  occ. eigenvalues --   -1.04611  -1.00983  -0.93568  -0.85592  -0.83108
 Alpha  occ. eigenvalues --   -0.79179  -0.71046  -0.69514  -0.66330  -0.65620
 Alpha  occ. eigenvalues --   -0.64362  -0.61425  -0.58703  -0.58309  -0.56828
 Alpha  occ. eigenvalues --   -0.56590  -0.54747  -0.52839  -0.52697  -0.50211
 Alpha  occ. eigenvalues --   -0.42597  -0.41728  -0.39302  -0.37179  -0.33837
 Alpha virt. eigenvalues --    0.11860   0.13667   0.18955   0.21055   0.25389
 Alpha virt. eigenvalues --    0.25722   0.27575   0.29959   0.30848   0.31367
 Alpha virt. eigenvalues --    0.32381   0.33353   0.33938   0.34365   0.39144

 Mulliken atomic charges:
              1
     1  C   -0.257694
     2  C   -0.163065
     3  C    0.064625
     4  C    0.039999
     5  C   -0.034233
     6  C    0.762912
     7  C   -0.575648
     8  C   -0.165692
     9  N   -0.522460
    10  N   -0.790541
    11  O   -0.633668
    12  H    0.213708
    13  H    0.260937
    14  H    0.203566
    15  H    0.194981
    16  H    0.207729
    17  H    0.212522
    18  H    0.169581
    19  H    0.236174
    20  H    0.190880
    21  H    0.385387
 Sum of Mulliken atomic charges =   0.00000

 Dipole moment (field-independent basis, Debye):
    X=             -1.5308    Y=             -1.0703    Z=              2.1629  Tot=              2.8578
 Quadrupole moment (field-independent basis, Debye-Ang):
   XX=            -69.9552   YY=            -60.7994   ZZ=            -66.4675
   XY=             10.7507   XZ=             -8.6830   YZ=              2.6315

 Normal termination of Gaussian 09 at Sat Feb 17 20:58:22 2018.
