 Gaussian 09, Revision C.01,
 Gaussian 09:  AM64L-G09RevC.01 23-Sep-2011

 ----------------------------------------------------------------------
 #HF/6-31G* Geom=AllCheck Guess=Read Pop=(MK,ReadRadii) Integral=(Grid=
 UltraFine) iop(6/33=2)
 ----------------------------------------------------------------------

 Structure from the checkpoint file:  frag51-conf1.chk
 -----------------------------
 Optimization for frag51-conf1
 -----------------------------
 Charge =  0 Multiplicity = 1

                         Standard orientation:
 ---------------------------------------------------------------------
 Center     Atomic      Atomic             Coordinates (Angstroms)
 Number     Number       Type             X           Y           Z
 ---------------------------------------------------------------------
      1          6           0       -1.410246    1.727268    0.726641
      2          6           0       -2.629696    1.050078    0.683004
      3          6           0       -1.524995   -0.751323   -0.493321
      4          6           0       -0.236028    1.193491    0.186132
      5          6           0       -0.302794   -0.073976   -0.434086
      6          6           0       -2.673677   -0.193823    0.065274
      7          6           0        3.098492   -0.870578    0.155405
      8          6           0        3.915094   -1.668155    1.157921
      9          6           0        0.910601   -0.748061   -1.053513
     10          6           0        1.052502    1.998602    0.314091
     11          7           0        1.834878   -1.318705   -0.069792
     12          8           0        3.583630    0.113232   -0.409951
     13          8           0        1.756988    2.165742   -0.903654
     14         17           0       -4.193887   -1.077013   -0.022984
     15          1           0       -1.375013    2.709606    1.191967
     16          1           0       -3.527248    1.486407    1.108184
     17          1           0       -1.585792   -1.719252   -0.982737
     18          1           0        3.365745   -2.493784    1.620124
     19          1           0        4.796438   -2.069915    0.648247
     20          1           0        4.272123   -0.991791    1.940051
     21          1           0        0.577097   -1.556778   -1.713828
     22          1           0        1.478260   -0.037472   -1.651430
     23          1           0        0.791203    2.993648    0.697167
     24          1           0        1.698832    1.533355    1.073453
     25          1           0        1.503016   -2.101888    0.475870
     26          1           0        2.536802    1.575089   -0.864251
 ---------------------------------------------------------------------

 SCF Done:  E(RHF) =  -1049.33375370     A.U. after   14 cycles

 The electronic state is 1-A.
 Alpha  occ. eigenvalues -- -104.82785 -20.54470 -20.53902 -15.61330 -11.37919
 Alpha  occ. eigenvalues --  -11.30748 -11.28358 -11.27999 -11.25977 -11.25592
 Alpha  occ. eigenvalues --  -11.25524 -11.25467 -11.25225 -11.24944 -10.56085
 Alpha  occ. eigenvalues --   -8.03022  -8.02694  -8.02690  -1.39535  -1.33710
 Alpha  occ. eigenvalues --   -1.25051  -1.18819  -1.12287  -1.05898  -1.02166
 Alpha  occ. eigenvalues --   -1.01704  -0.94920  -0.89700  -0.83893  -0.80742
 Alpha  occ. eigenvalues --   -0.79542  -0.71491  -0.69355  -0.67931  -0.67056
 Alpha  occ. eigenvalues --   -0.65882  -0.64865  -0.62343  -0.59935  -0.59377
 Alpha  occ. eigenvalues --   -0.58880  -0.57933  -0.57302  -0.55751  -0.53752
 Alpha  occ. eigenvalues --   -0.53669  -0.51777  -0.50767  -0.49526  -0.45954
 Alpha  occ. eigenvalues --   -0.45442  -0.44043  -0.42702  -0.41017  -0.34808
 Alpha  occ. eigenvalues --   -0.32782
 Alpha virt. eigenvalues --    0.11617   0.12706   0.17451   0.19302   0.20236
 Alpha virt. eigenvalues --    0.24642   0.26032   0.26342   0.28320   0.29441
 Alpha virt. eigenvalues --    0.30572   0.30969   0.31752   0.32537   0.33634

 Mulliken atomic charges:
              1
     1  C   -0.228481
     2  C   -0.176537
     3  C   -0.211568
     4  C    0.023770
     5  C    0.028947
     6  C   -0.135098
     7  C    0.780335
     8  C   -0.576219
     9  C   -0.186455
    10  C   -0.023890
    11  N   -0.790713
    12  O   -0.673018
    13  O   -0.785009
    14  Cl  -0.009636
    15  H    0.213411
    16  H    0.233010
    17  H    0.223908
    18  H    0.172987
    19  H    0.216794
    20  H    0.213682
    21  H    0.193963
    22  H    0.258326
    23  H    0.171153
    24  H    0.157907
    25  H    0.392036
    26  H    0.516396
 Sum of Mulliken atomic charges =   0.00000

 Dipole moment (field-independent basis, Debye):
    X=              0.8560    Y=             -3.5256    Z=              2.9886  Tot=              4.7004
 Quadrupole moment (field-independent basis, Debye-Ang):
   XX=            -99.7485   YY=            -85.5682   ZZ=            -89.6347
   XY=            -15.0110   XZ=              6.2096   YZ=              5.9247

 Normal termination of Gaussian 09 at Sat Feb 17 21:07:01 2018.
