 Gaussian 09, Revision C.01,
 Gaussian 09:  AM64L-G09RevC.01 23-Sep-2011

 ---------------------------------------------------------
 #B3LYP/6-31G* Integral=(Grid=UltraFine) freq Opt pop=none
 ---------------------------------------------------------

 99/9=1/99;
 -----------------------------
 Optimization for frag51-conf1
 -----------------------------
 Charge =  0 Multiplicity = 1

 SCF Done:  E(RB3LYP) =  -1053.68467586     A.U. after   15 cycles
 SCF Done:  E(RB3LYP) =  -1053.68750633     A.U. after   12 cycles
 SCF Done:  E(RB3LYP) =  -1053.68789180     A.U. after   11 cycles
 SCF Done:  E(RB3LYP) =  -1053.68809536     A.U. after   12 cycles
 SCF Done:  E(RB3LYP) =  -1053.68825914     A.U. after   12 cycles
 SCF Done:  E(RB3LYP) =  -1053.68861502     A.U. after   11 cycles
 SCF Done:  E(RB3LYP) =  -1053.68970625     A.U. after   13 cycles
 SCF Done:  E(RB3LYP) =  -1053.69166165     A.U. after   14 cycles
 SCF Done:  E(RB3LYP) =  -1053.68646153     A.U. after   13 cycles
 SCF Done:  E(RB3LYP) =  -1053.69259786     A.U. after   13 cycles
 SCF Done:  E(RB3LYP) =  -1053.69818955     A.U. after   10 cycles
 SCF Done:  E(RB3LYP) =  -1053.69819654     A.U. after   10 cycles
 SCF Done:  E(RB3LYP) =  -1053.69820124     A.U. after   10 cycles
 SCF Done:  E(RB3LYP) =  -1053.69820611     A.U. after    9 cycles
 SCF Done:  E(RB3LYP) =  -1053.69821231     A.U. after   10 cycles
 SCF Done:  E(RB3LYP) =  -1053.69821838     A.U. after   10 cycles
 SCF Done:  E(RB3LYP) =  -1053.69822298     A.U. after   10 cycles
 SCF Done:  E(RB3LYP) =  -1053.69822387     A.U. after    9 cycles
 SCF Done:  E(RB3LYP) =  -1053.69822398     A.U. after    8 cycles
 Optimization completed.
    -- Stationary point found.
 Normal termination of Gaussian 09 at Fri Feb 16 22:11:29 2018.

 --------------------------------------------------------------------
 #N Geom=AllCheck Guess=TCheck SCRF=Check GenChk RB3LYP/6-31G(d) Freq
 --------------------------------------------------------------------

 Structure from the checkpoint file:  frag51-conf1.chk
 -----------------------------
 Optimization for frag51-conf1
 -----------------------------
 Charge =  0 Multiplicity = 1

                         Standard orientation:
 ---------------------------------------------------------------------
 Center     Atomic      Atomic             Coordinates (Angstroms)
 Number     Number       Type             X           Y           Z
 ---------------------------------------------------------------------
      1          6           0       -1.410246    1.727268    0.726641
      2          6           0       -2.629696    1.050078    0.683004
      3          6           0       -1.524995   -0.751323   -0.493321
      4          6           0       -0.236028    1.193491    0.186132
      5          6           0       -0.302794   -0.073976   -0.434086
      6          6           0       -2.673677   -0.193823    0.065274
      7          6           0        3.098492   -0.870578    0.155405
      8          6           0        3.915094   -1.668155    1.157921
      9          6           0        0.910601   -0.748061   -1.053513
     10          6           0        1.052502    1.998602    0.314091
     11          7           0        1.834878   -1.318705   -0.069792
     12          8           0        3.583630    0.113232   -0.409951
     13          8           0        1.756988    2.165742   -0.903654
     14         17           0       -4.193887   -1.077013   -0.022984
     15          1           0       -1.375013    2.709606    1.191967
     16          1           0       -3.527248    1.486407    1.108184
     17          1           0       -1.585792   -1.719252   -0.982737
     18          1           0        3.365745   -2.493784    1.620124
     19          1           0        4.796438   -2.069915    0.648247
     20          1           0        4.272123   -0.991791    1.940051
     21          1           0        0.577097   -1.556778   -1.713828
     22          1           0        1.478260   -0.037472   -1.651430
     23          1           0        0.791203    2.993648    0.697167
     24          1           0        1.698832    1.533355    1.073453
     25          1           0        1.503016   -2.101888    0.475870
     26          1           0        2.536802    1.575089   -0.864251
 ---------------------------------------------------------------------

 SCF Done:  E(RB3LYP) =  -1053.69822398     A.U. after    1 cycles

 Isotropic polarizability for W=    0.000000      126.04 Bohr**3.
 End of Minotr Frequency-dependent properties file   721 does not exist.

                     1                      2                      3
                     A                      A                      A
 Frequencies --    35.5997                59.3193                75.5125
 Red. masses --     4.9205                 1.6127                 1.7156
 Frc consts  --     0.0037                 0.0033                 0.0058
 IR Inten    --     2.1253                 2.3217                 1.9164

                     4                      5                      6
                     A                      A                      A
 Frequencies --    92.7192               129.0459               158.2139
 Red. masses --     7.1767                 4.3774                 7.0950
 Frc consts  --     0.0364                 0.0429                 0.1046
 IR Inten    --     3.9718                 8.1842                 0.4815

                     7                      8                      9
                     A                      A                      A
 Frequencies --   176.8401               202.3353               208.9106
 Red. masses --     4.2909                 5.1497                 5.4997
 Frc consts  --     0.0791                 0.1242                 0.1414
 IR Inten    --     3.8057                 5.8868                 4.5821

                    10                     11                     12
                     A                      A                      A
 Frequencies --   250.9404               309.0050               327.4067
 Red. masses --     4.8654                 5.4736                 2.8097
 Frc consts  --     0.1805                 0.3079                 0.1775
 IR Inten    --     3.1534                 1.3622                 3.7859

                    13                     14                     15
                     A                      A                      A
 Frequencies --   341.8751               415.3427               442.2094
 Red. masses --     4.8691                 3.3603                 3.0285
 Frc consts  --     0.3353                 0.3415                 0.3489
 IR Inten    --     3.8856                 3.3092                 1.5715

                    16                     17                     18
                     A                      A                      A
 Frequencies --   455.2416               485.5618               504.7495
 Red. masses --     3.6705                 3.0068                 1.5362
 Frc consts  --     0.4482                 0.4177                 0.2306
 IR Inten    --    14.3761                44.9227                71.6538

                    19                     20                     21
                     A                      A                      A
 Frequencies --   567.8247               620.8357               628.1992
 Red. masses --     4.2430                 3.1425                 3.0781
 Frc consts  --     0.8060                 0.7136                 0.7157
 IR Inten    --    10.0444                 7.9308                12.1279

                    22                     23                     24
                     A                      A                      A
 Frequencies --   645.7832               675.1556               695.8940
 Red. masses --     2.9815                 2.4520                 1.5745
 Frc consts  --     0.7326                 0.6585                 0.4493
 IR Inten    --     0.4771                42.6247                63.5637

                    25                     26                     27
                     A                      A                      A
 Frequencies --   728.2590               784.4980               836.2209
 Red. masses --     4.5554                 3.4925                 1.4018
 Frc consts  --     1.4235                 1.2664                 0.5775
 IR Inten    --     7.8093                 4.5854                24.6755

                    28                     29                     30
                     A                      A                      A
 Frequencies --   878.7878               890.4037               907.1724
 Red. masses --     2.5424                 1.8984                 2.7668
 Frc consts  --     1.1568                 0.8868                 1.3415
 IR Inten    --     3.7622                22.1797                34.6609

                    31                     32                     33
                     A                      A                      A
 Frequencies --   958.3430               995.3306              1007.2352
 Red. masses --     1.3409                 1.7391                 1.7667
 Frc consts  --     0.7256                 1.0151                 1.0560
 IR Inten    --     1.0261                 8.2991                 5.9244

                    34                     35                     36
                     A                      A                      A
 Frequencies --  1033.3689              1070.3676              1083.9433
 Red. masses --     2.5741                 1.7033                 6.2930
 Frc consts  --     1.6195                 1.1498                 4.3563
 IR Inten    --    11.6521                 8.7125                62.9130

                    37                     38                     39
                     A                      A                      A
 Frequencies --  1096.9061              1125.9059              1152.4771
 Red. masses --     3.1678                 2.2663                 2.2348
 Frc consts  --     2.2457                 1.6926                 1.7488
 IR Inten    --    17.8522                25.3310                26.0515

                    40                     41                     42
                     A                      A                      A
 Frequencies --  1203.7287              1234.7466              1261.7245
 Red. masses --     2.1246                 2.2796                 1.1863
 Frc consts  --     1.8138                 2.0477                 1.1127
 IR Inten    --     4.4228                28.0420                17.1539

                    43                     44                     45
                     A                      A                      A
 Frequencies --  1269.5265              1295.9262              1322.0546
 Red. masses --     1.3240                 1.9137                 1.2970
 Frc consts  --     1.2573                 1.8936                 1.3357
 IR Inten    --     8.2931               125.5494                39.9148

                    46                     47                     48
                     A                      A                      A
 Frequencies --  1345.1960              1391.7003              1424.3158
 Red. masses --     3.6533                 1.3249                 1.4910
 Frc consts  --     3.8950                 1.5119                 1.7822
 IR Inten    --     6.1009                 7.8442                37.8415

                    49                     50                     51
                     A                      A                      A
 Frequencies --  1429.9445              1452.1377              1476.3704
 Red. masses --     1.2634                 2.1710                 1.2203
 Frc consts  --     1.5220                 2.6973                 1.5671
 IR Inten    --    16.1920                12.8974                47.1221

                    52                     53                     54
                     A                      A                      A
 Frequencies --  1499.6210              1516.0826              1516.6159
 Red. masses --     1.0453                 1.0811                 1.2324
 Frc consts  --     1.3850                 1.4640                 1.6701
 IR Inten    --     7.2633                 9.7959                39.6743

                    55                     56                     57
                     A                      A                      A
 Frequencies --  1523.9351              1536.8747              1573.2203
 Red. masses --     1.0963                 1.8755                 2.0024
 Frc consts  --     1.5001                 2.6100                 2.9199
 IR Inten    --     7.8426                25.2326               227.8046

                    58                     59                     60
                     A                      A                      A
 Frequencies --  1622.3183              1651.2311              1750.1910
 Red. masses --     6.8597                 6.1004                 7.9707
 Frc consts  --    10.6371                 9.8000                14.3852
 IR Inten    --    11.3354                24.3814               232.1707

                    61                     62                     63
                     A                      A                      A
 Frequencies --  3012.3161              3058.6095              3066.6440
 Red. masses --     1.0619                 1.1014                 1.0727
 Frc consts  --     5.6774                 6.0705                 5.9437
 IR Inten    --    42.5326                50.4781                27.1803

                    64                     65                     66
                     A                      A                      A
 Frequencies --  3067.8608              3142.3568              3146.8421
 Red. masses --     1.0357                 1.1021                 1.1034
 Frc consts  --     5.7434                 6.4121                 6.4379
 IR Inten    --     6.9946                 8.1111                11.8362

                    67                     68                     69
                     A                      A                      A
 Frequencies --  3183.8764              3185.6249              3199.5076
 Red. masses --     1.0889                 1.0911                 1.0909
 Frc consts  --     6.5036                 6.5237                 6.5794
 IR Inten    --    12.6428                 1.4520                 3.9667

                    70                     71                     72
                     A                      A                      A
 Frequencies --  3223.4508              3575.4014              3620.1314
 Red. masses --     1.0935                 1.0675                 1.0776
 Frc consts  --     6.6942                 8.0401                 8.3208
 IR Inten    --     4.4250               357.8714                19.2412

 - Thermochemistry -
 -------------------
 Temperature   298.150 Kelvin.  Pressure   1.00000 Atm.
 Atom     1 has atomic number  6 and mass  12.00000

 Molecular mass:   213.05566 amu.
 Principal axes and moments of inertia in atomic units:
                           1         2         3
     Eigenvalues --  1564.211775815.869906787.44547
           X            0.99970  -0.02368   0.00693
           Y            0.02360   0.99966   0.01142
           Z           -0.00719  -0.01125   0.99991
 This molecule is an asymmetric top.
 Rotational symmetry number  1.
 Warning -- assumption of classical behavior for rotation
           may cause significant error
 Rotational temperatures (Kelvin)      0.05537     0.01489     0.01276
 Rotational constants (GHZ):           1.15377     0.31031     0.26589
 Zero-point vibrational energy     549288.2 (Joules/Mol)
                                  131.28304 (Kcal/Mol)
 Warning -- explicit consideration of  19 degrees of freedom as
           vibrations may cause significant error
 Vibrational temperatures:     51.22    85.35   108.65   133.40   185.67
          (Kelvin)            227.63   254.43   291.11   300.58   361.05
                              444.59   471.06   491.88   597.58   636.24
                              654.99   698.61   726.22   816.97   893.24
                              903.84   929.14   971.40  1001.24  1047.80
                             1128.72  1203.13  1264.38  1281.09  1305.22
                             1378.84  1432.06  1449.19  1486.79  1540.02
                             1559.55  1578.20  1619.93  1658.16  1731.89
                             1776.52  1815.34  1826.56  1864.55  1902.14
                             1935.43  2002.34  2049.27  2057.37  2089.30
                             2124.17  2157.62  2181.30  2182.07  2192.60
                             2211.22  2263.51  2334.15  2375.75  2518.13
                             4334.05  4400.65  4412.21  4413.96  4521.14
                             4527.60  4580.88  4583.40  4603.37  4637.82
                             5144.20  5208.56

 Zero-point correction=                           0.209213 (Hartree/Particle)
 Thermal correction to Energy=                    0.222893
 Thermal correction to Enthalpy=                  0.223837
 Thermal correction to Gibbs Free Energy=         0.167757
 Sum of electronic and zero-point Energies=          -1053.489011
 Sum of electronic and thermal Energies=             -1053.475331
 Sum of electronic and thermal Enthalpies=           -1053.474387
 Sum of electronic and thermal Free Energies=        -1053.530467

                     E (Thermal)             CV                S
                      KCal/Mol        Cal/Mol-Kelvin    Cal/Mol-Kelvin
 Total                  139.867             50.832            118.031
 Electronic               0.000              0.000              0.000
 Translational            0.889              2.981             41.973
 Rotational               0.889              2.981             32.490
 Vibrational            138.090             44.871             43.568
 Vibration     1          0.594              1.982              5.490
 Vibration     2          0.597              1.974              4.480
 Vibration     3          0.599              1.965              4.004
 Vibration     4          0.602              1.954              3.602
 Vibration     5          0.612              1.924              2.960
 Vibration     6          0.621              1.893              2.571
 Vibration     7          0.628              1.871              2.362
 Vibration     8          0.639              1.837              2.112
 Vibration     9          0.642              1.827              2.053
 Vibration    10          0.663              1.761              1.724
 Vibration    11          0.698              1.657              1.368
 Vibration    12          0.711              1.621              1.273
 Vibration    13          0.721              1.592              1.203
 Vibration    14          0.779              1.437              0.908
 Vibration    15          0.802              1.378              0.820
 Vibration    16          0.814              1.349              0.780
 Vibration    17          0.842              1.282              0.695
 Vibration    18          0.860              1.239              0.646
 Vibration    19          0.924              1.101              0.508

 Optimization completed.
    -- Stationary point found.
 Normal termination of Gaussian 09 at Fri Feb 16 22:36:08 2018.
