 Gaussian 09, Revision C.01,
 Gaussian 09:  AM64L-G09RevC.01 23-Sep-2011

 ----------------------------------------------------------------------
 #HF/6-31G* Geom=AllCheck Guess=Read Pop=(MK,ReadRadii) Integral=(Grid=
 UltraFine) iop(6/33=2)
 ----------------------------------------------------------------------

 Structure from the checkpoint file:  frag22-conf1.chk
 -----------------------------
 Optimization for frag22-conf1
 -----------------------------
 Charge =  0 Multiplicity = 1

                         Standard orientation:
 ---------------------------------------------------------------------
 Center     Atomic      Atomic             Coordinates (Angstroms)
 Number     Number       Type             X           Y           Z
 ---------------------------------------------------------------------
      1          6           0       -3.484476    0.258215   -0.299540
      2          6           0       -2.811488   -0.745578   -0.999875
      3          6           0       -2.884850    0.847008    0.815163
      4          6           0       -1.546224   -1.161066   -0.586829
      5          6           0       -1.617752    0.433064    1.227140
      6          6           0       -0.937807   -0.576670    0.533215
      7          6           0        1.075839    2.121309   -0.913973
      8          6           0        0.428295   -1.018037    0.981136
      9          7           0        1.627410    1.347058    0.209576
     10          8           0        3.052683   -0.685381    0.694015
     11          8           0        1.589656   -0.685097   -1.407217
     12         16           0        1.809608   -0.326823   -0.000718
     13          1           0       -4.472433    0.577906   -0.619810
     14          1           0       -3.272708   -1.207339   -1.868575
     15          1           0       -3.403393    1.627045    1.366063
     16          1           0       -1.019222   -1.933157   -1.139868
     17          1           0       -1.150175    0.895357    2.092634
     18          1           0        0.057558    1.786849   -1.117381
     19          1           0        1.666505    2.037390   -1.833044
     20          1           0        1.036513    3.167720   -0.598008
     21          1           0        0.570919   -2.099240    0.882102
     22          1           0        0.644326   -0.730303    2.012554
     23          1           0        2.528575    1.691893    0.534781
 ---------------------------------------------------------------------

 SCF Done:  E(RHF) =  -910.956014024     A.U. after   14 cycles

 The electronic state is 1-A.
 Alpha  occ. eigenvalues --  -92.20379 -20.55566 -20.55461 -15.60776 -11.28481
 Alpha  occ. eigenvalues --  -11.27147 -11.26195 -11.25134 -11.24938 -11.24841
 Alpha  occ. eigenvalues --  -11.24739 -11.24608  -9.17589  -6.86156  -6.86152
 Alpha  occ. eigenvalues --   -6.86041  -1.44834  -1.33170  -1.22607  -1.16687
 Alpha  occ. eigenvalues --   -1.07671  -1.02365  -0.98788  -0.94281  -0.84182
 Alpha  occ. eigenvalues --   -0.83783  -0.80420  -0.71666  -0.69847  -0.68214
 Alpha  occ. eigenvalues --   -0.66696  -0.64859  -0.64594  -0.62105  -0.60075
 Alpha  occ. eigenvalues --   -0.59592  -0.58432  -0.57842  -0.55782  -0.51978
 Alpha  occ. eigenvalues --   -0.50871  -0.50429  -0.50085  -0.48572  -0.46313
 Alpha  occ. eigenvalues --   -0.45028  -0.42556  -0.34384  -0.33920
 Alpha virt. eigenvalues --    0.11717   0.13102   0.20813   0.22652   0.24385
 Alpha virt. eigenvalues --    0.25073   0.26435   0.26996   0.27314   0.28228
 Alpha virt. eigenvalues --    0.29424   0.30703   0.31049   0.32740   0.33102

 Mulliken atomic charges:
              1
     1  C   -0.196626
     2  C   -0.205244
     3  C   -0.205126
     4  C   -0.185480
     5  C   -0.200489
     6  C   -0.007184
     7  C   -0.306378
     8  C   -0.584334
     9  N   -0.873999
    10  O   -0.699884
    11  O   -0.695411
    12  S    1.612825
    13  H    0.209095
    14  H    0.211333
    15  H    0.208014
    16  H    0.232132
    17  H    0.212904
    18  H    0.209277
    19  H    0.193122
    20  H    0.182771
    21  H    0.244052
    22  H    0.241442
    23  H    0.403186
 Sum of Mulliken atomic charges =   0.00000

 Dipole moment (field-independent basis, Debye):
    X=             -3.6095    Y=              2.6946    Z=              1.1649  Tot=              4.6526
 Quadrupole moment (field-independent basis, Debye-Ang):
   XX=            -84.1950   YY=            -71.7953   ZZ=            -79.4742
   XY=              6.8130   XZ=              2.4744   YZ=             -0.2281

 Normal termination of Gaussian 09 at Sat Feb 17 21:00:22 2018.
