 Gaussian 09, Revision C.01,
 Gaussian 09:  AM64L-G09RevC.01 23-Sep-2011

 ---------------------------------------------------------
 #B3LYP/6-31G* Integral=(Grid=UltraFine) freq Opt pop=none
 ---------------------------------------------------------

 99/9=1/99;
 -----------------------------
 Optimization for frag22-conf1
 -----------------------------
 Charge =  0 Multiplicity = 1

 SCF Done:  E(RB3LYP) =  -914.789434049     A.U. after   15 cycles
 SCF Done:  E(RB3LYP) =  -914.793827007     A.U. after   15 cycles
 SCF Done:  E(RB3LYP) =  -914.794521131     A.U. after   12 cycles
 SCF Done:  E(RB3LYP) =  -914.794775660     A.U. after   12 cycles
 SCF Done:  E(RB3LYP) =  -914.794899944     A.U. after   12 cycles
 SCF Done:  E(RB3LYP) =  -914.794937090     A.U. after   11 cycles
 SCF Done:  E(RB3LYP) =  -914.794961917     A.U. after   11 cycles
 SCF Done:  E(RB3LYP) =  -914.794971153     A.U. after    9 cycles
 SCF Done:  E(RB3LYP) =  -914.794976776     A.U. after   10 cycles
 SCF Done:  E(RB3LYP) =  -914.794981201     A.U. after   10 cycles
 SCF Done:  E(RB3LYP) =  -914.797792061     A.U. after   12 cycles
 SCF Done:  E(RB3LYP) =  -914.797889277     A.U. after   12 cycles
 SCF Done:  E(RB3LYP) =  -914.797810469     A.U. after   13 cycles
 SCF Done:  E(RB3LYP) =  -914.798008017     A.U. after   11 cycles
 SCF Done:  E(RB3LYP) =  -914.798024459     A.U. after   10 cycles
 SCF Done:  E(RB3LYP) =  -914.798026151     A.U. after   10 cycles
 SCF Done:  E(RB3LYP) =  -914.798026689     A.U. after    8 cycles
 SCF Done:  E(RB3LYP) =  -914.798026716     A.U. after    7 cycles
 SCF Done:  E(RB3LYP) =  -914.798026727     A.U. after    6 cycles
 Optimization completed.
    -- Stationary point found.
 Normal termination of Gaussian 09 at Fri Feb 16 20:23:09 2018.

 --------------------------------------------------------------------
 #N Geom=AllCheck Guess=TCheck SCRF=Check GenChk RB3LYP/6-31G(d) Freq
 --------------------------------------------------------------------

 Structure from the checkpoint file:  frag22-conf1.chk
 -----------------------------
 Optimization for frag22-conf1
 -----------------------------
 Charge =  0 Multiplicity = 1

                         Standard orientation:
 ---------------------------------------------------------------------
 Center     Atomic      Atomic             Coordinates (Angstroms)
 Number     Number       Type             X           Y           Z
 ---------------------------------------------------------------------
      1          6           0       -3.484476    0.258215   -0.299540
      2          6           0       -2.811488   -0.745578   -0.999875
      3          6           0       -2.884850    0.847008    0.815163
      4          6           0       -1.546224   -1.161066   -0.586829
      5          6           0       -1.617752    0.433064    1.227140
      6          6           0       -0.937807   -0.576670    0.533215
      7          6           0        1.075839    2.121309   -0.913973
      8          6           0        0.428295   -1.018037    0.981136
      9          7           0        1.627410    1.347058    0.209576
     10          8           0        3.052683   -0.685381    0.694015
     11          8           0        1.589656   -0.685097   -1.407217
     12         16           0        1.809608   -0.326823   -0.000718
     13          1           0       -4.472433    0.577906   -0.619810
     14          1           0       -3.272708   -1.207339   -1.868575
     15          1           0       -3.403393    1.627045    1.366063
     16          1           0       -1.019222   -1.933157   -1.139868
     17          1           0       -1.150175    0.895357    2.092634
     18          1           0        0.057558    1.786849   -1.117381
     19          1           0        1.666505    2.037390   -1.833044
     20          1           0        1.036513    3.167720   -0.598008
     21          1           0        0.570919   -2.099240    0.882102
     22          1           0        0.644326   -0.730303    2.012554
     23          1           0        2.528575    1.691893    0.534781
 ---------------------------------------------------------------------

 SCF Done:  E(RB3LYP) =  -914.798026727     A.U. after    1 cycles

 Isotropic polarizability for W=    0.000000      106.35 Bohr**3.
 End of Minotr Frequency-dependent properties file   721 does not exist.

                     1                      2                      3
                     A                      A                      A
 Frequencies --    33.8339                57.2575                74.2738
 Red. masses --     4.1615                 4.0136                 3.0621
 Frc consts  --     0.0028                 0.0078                 0.0100
 IR Inten    --     1.0459                 1.3471                 0.2017

                     4                      5                      6
                     A                      A                      A
 Frequencies --    97.5941               142.9694               216.9844
 Red. masses --     2.6478                 1.3222                 4.2012
 Frc consts  --     0.0149                 0.0159                 0.1165
 IR Inten    --     4.0720                 1.2740                 4.0923

                     7                      8                      9
                     A                      A                      A
 Frequencies --   237.3872               255.8027               274.1551
 Red. masses --     4.7877                 4.9177                 8.3696
 Frc consts  --     0.1590                 0.1896                 0.3706
 IR Inten    --     1.2574                 1.4297                 2.8134

                    10                     11                     12
                     A                      A                      A
 Frequencies --   357.5147               413.1555               417.5297
 Red. masses --     2.0196                 4.3066                 3.0910
 Frc consts  --     0.1521                 0.4331                 0.3175
 IR Inten    --     2.1102                20.0231                 2.2260

                    13                     14                     15
                     A                      A                      A
 Frequencies --   449.3224               455.7492               532.1553
 Red. masses --     5.1335                 4.3196                 4.8227
 Frc consts  --     0.6106                 0.5286                 0.8047
 IR Inten    --     7.1551                10.2920                71.3727

                    16                     17                     18
                     A                      A                      A
 Frequencies --   591.9939               612.6932               635.2118
 Red. masses --     3.0240                 5.2150                 6.2870
 Frc consts  --     0.6244                 1.1534                 1.4946
 IR Inten    --    61.0278                53.7802                 0.3620

                    19                     20                     21
                     A                      A                      A
 Frequencies --   703.5145               713.3132               784.9066
 Red. masses --     3.5186                 1.5326                 1.9599
 Frc consts  --     1.0260                 0.4594                 0.7114
 IR Inten    --    16.9366                25.2138                 6.8594

                    22                     23                     24
                     A                      A                      A
 Frequencies --   833.9066               844.5065               858.0390
 Red. masses --     3.7552                 2.3740                 1.2521
 Frc consts  --     1.5386                 0.9976                 0.5431
 IR Inten    --    19.0588               104.6044                 0.2330

                    25                     26                     27
                     A                      A                      A
 Frequencies --   916.7747               933.8628               969.2670
 Red. masses --     1.7035                 1.5293                 1.3572
 Frc consts  --     0.8436                 0.7858                 0.7513
 IR Inten    --    13.0667                16.0937                 0.1572

                    28                     29                     30
                     A                      A                      A
 Frequencies --   999.0363              1018.9252              1059.0090
 Red. masses --     1.2628                 6.1674                 2.2443
 Frc consts  --     0.7426                 3.7726                 1.4829
 IR Inten    --     0.1983                 0.7255                 2.2775

                    31                     32                     33
                     A                      A                      A
 Frequencies --  1066.6342              1106.2883              1116.4717
 Red. masses --     3.5018                 2.5390                 2.6980
 Frc consts  --     2.3473                 1.8308                 1.9815
 IR Inten    --    58.0676                63.9494                99.3928

                    34                     35                     36
                     A                      A                      A
 Frequencies --  1151.5205              1163.8357              1181.5413
 Red. masses --     1.3127                 1.5371                 1.1746
 Frc consts  --     1.0256                 1.2267                 0.9661
 IR Inten    --    11.7043                 5.4915                14.2970

                    37                     38                     39
                     A                      A                      A
 Frequencies --  1194.5161              1217.0334              1232.2720
 Red. masses --     1.0985                 1.1445                 2.4957
 Frc consts  --     0.9235                 0.9988                 2.2329
 IR Inten    --     0.0414                 0.2404                 1.2458

                    40                     41                     42
                     A                      A                      A
 Frequencies --  1292.3159              1329.5314              1360.3793
 Red. masses --     1.8786                 3.8056                 5.0084
 Frc consts  --     1.8485                 3.9635                 5.4609
 IR Inten    --    47.9401               105.1708                 1.1707

                    43                     44                     45
                     A                      A                      A
 Frequencies --  1371.8807              1437.1802              1479.8714
 Red. masses --     1.3132                 1.3065                 1.1504
 Frc consts  --     1.4562                 1.5900                 1.4843
 IR Inten    --     1.2207                42.7255                 1.2668

                    46                     47                     48
                     A                      A                      A
 Frequencies --  1484.9211              1502.6150              1518.2256
 Red. masses --     1.1224                 2.1630                 1.0455
 Frc consts  --     1.4581                 2.8775                 1.4199
 IR Inten    --     4.8415                 8.3825                 2.7138

                    49                     50                     51
                     A                      A                      A
 Frequencies --  1538.0850              1546.7936              1644.2731
 Red. masses --     1.0478                 2.1925                 5.4747
 Frc consts  --     1.4605                 3.0907                 8.7208
 IR Inten    --     6.3538                 8.7935                 0.6082

                    52                     53                     54
                     A                      A                      A
 Frequencies --  1664.2942              3060.7688              3087.7956
 Red. masses --     5.4980                 1.0367                 1.0608
 Frc consts  --     8.9726                 5.7223                 5.9592
 IR Inten    --     0.7661                36.9213                 5.0397

                    55                     56                     57
                     A                      A                      A
 Frequencies --  3130.9750              3152.8221              3170.4010
 Red. masses --     1.1034                 1.1053                 1.1024
 Frc consts  --     6.3732                 6.4732                 6.5288
 IR Inten    --    15.1043                 0.9572                10.0108

                    58                     59                     60
                     A                      A                      A
 Frequencies --  3183.0470              3190.4208              3199.0228
 Red. masses --     1.0852                 1.0879                 1.0916
 Frc consts  --     6.4780                 6.5245                 6.5818
 IR Inten    --     1.2305                 2.2112                21.1407

                    61                     62                     63
                     A                      A                      A
 Frequencies --  3206.9078              3214.2329              3529.6000
 Red. masses --     1.0945                 1.0975                 1.0752
 Frc consts  --     6.6318                 6.6805                 7.8922
 IR Inten    --    24.5931                 9.7626                30.1980

 - Thermochemistry -
 -------------------
 Temperature   298.150 Kelvin.  Pressure   1.00000 Atm.
 Atom     1 has atomic number  6 and mass  12.00000

 Molecular mass:   185.05105 amu.
 Principal axes and moments of inertia in atomic units:
                           1         2         3
     Eigenvalues --  1117.256653371.630243561.62827
           X            0.99995   0.00941   0.00321
           Y           -0.00930   0.99937  -0.03417
           Z           -0.00353   0.03414   0.99941
 This molecule is an asymmetric top.
 Rotational symmetry number  1.
 Warning -- assumption of classical behavior for rotation
           may cause significant error
 Rotational temperatures (Kelvin)      0.07752     0.02569     0.02432
 Rotational constants (GHZ):           1.61533     0.53527     0.50672
 Zero-point vibrational energy     485786.2 (Joules/Mol)
                                  116.10570 (Kcal/Mol)
 Warning -- explicit consideration of  17 degrees of freedom as
           vibrations may cause significant error
 Vibrational temperatures:     48.68    82.38   106.86   140.42   205.70
          (Kelvin)            312.19   341.55   368.04   394.45   514.38
                              594.44   600.73   646.47   655.72   765.65
                              851.75   881.53   913.93  1012.20  1026.30
                             1129.30  1199.80  1215.05  1234.53  1319.03
                             1343.62  1394.56  1437.39  1466.00  1523.68
                             1534.65  1591.70  1606.35  1656.78  1674.50
                             1699.97  1718.64  1751.04  1772.96  1859.35
                             1912.90  1957.28  1973.83  2067.78  2129.20
                             2136.47  2161.93  2184.39  2212.96  2225.49
                             2365.74  2394.55  4403.76  4442.64  4504.77
                             4536.20  4561.49  4579.69  4590.30  4602.67
                             4614.02  4624.56  5078.30

 Zero-point correction=                           0.185026 (Hartree/Particle)
 Thermal correction to Energy=                    0.196825
 Thermal correction to Enthalpy=                  0.197769
 Thermal correction to Gibbs Free Energy=         0.145974
 Sum of electronic and zero-point Energies=           -914.613001
 Sum of electronic and thermal Energies=              -914.601202
 Sum of electronic and thermal Enthalpies=            -914.600257
 Sum of electronic and thermal Free Energies=         -914.652053

                     E (Thermal)             CV                S
                      KCal/Mol        Cal/Mol-Kelvin    Cal/Mol-Kelvin
 Total                  123.510             43.851            109.013
 Electronic               0.000              0.000              0.000
 Translational            0.889              2.981             41.553
 Rotational               0.889              2.981             30.973
 Vibrational            121.732             37.889             36.487
 Vibration     1          0.594              1.983              5.591
 Vibration     2          0.596              1.975              4.550
 Vibration     3          0.599              1.966              4.037
 Vibration     4          0.603              1.951              3.502
 Vibration     5          0.616              1.910              2.764
 Vibration     6          0.646              1.815              1.984
 Vibration     7          0.656              1.783              1.822
 Vibration     8          0.666              1.753              1.690
 Vibration     9          0.676              1.721              1.570
 Vibration    10          0.733              1.560              1.133
 Vibration    11          0.777              1.442              0.916
 Vibration    12          0.781              1.432              0.900
 Vibration    13          0.808              1.362              0.798
 Vibration    14          0.814              1.348              0.779
 Vibration    15          0.887              1.179              0.582
 Vibration    16          0.949              1.049              0.464
 Vibration    17          0.972              1.005              0.428

 Optimization completed.
    -- Stationary point found.
 Normal termination of Gaussian 09 at Fri Feb 16 20:46:51 2018.
