 Gaussian 09, Revision C.01,
 Gaussian 09:  AM64L-G09RevC.01 23-Sep-2011

 ---------------------------------------------------------
 #B3LYP/6-31G* Integral=(Grid=UltraFine) freq Opt pop=none
 ---------------------------------------------------------

 99/9=1/99;
 -----------------------------
 Optimization for frag45-conf1
 -----------------------------
 Charge =  0 Multiplicity = 1

 SCF Done:  E(RB3LYP) =  -1398.76029326     A.U. after   15 cycles
 SCF Done:  E(RB3LYP) =  -1398.76257008     A.U. after   12 cycles
 SCF Done:  E(RB3LYP) =  -1398.76281481     A.U. after   11 cycles
 SCF Done:  E(RB3LYP) =  -1398.76283192     A.U. after   12 cycles
 SCF Done:  E(RB3LYP) =  -1398.76290717     A.U. after   10 cycles
 SCF Done:  E(RB3LYP) =  -1398.76295519     A.U. after   11 cycles
 SCF Done:  E(RB3LYP) =  -1398.76310791     A.U. after   13 cycles
 SCF Done:  E(RB3LYP) =  -1398.76321999     A.U. after   13 cycles
 SCF Done:  E(RB3LYP) =  -1398.76353903     A.U. after   15 cycles
 SCF Done:  E(RB3LYP) =  -1398.76348541     A.U. after   13 cycles
 SCF Done:  E(RB3LYP) =  -1398.76338767     A.U. after   15 cycles
 SCF Done:  E(RB3LYP) =  -1398.76353722     A.U. after   12 cycles
 SCF Done:  E(RB3LYP) =  -1398.76359783     A.U. after   12 cycles
 SCF Done:  E(RB3LYP) =  -1398.76362739     A.U. after   12 cycles
 SCF Done:  E(RB3LYP) =  -1398.76362808     A.U. after    9 cycles
 SCF Done:  E(RB3LYP) =  -1398.76362828     A.U. after    7 cycles
 SCF Done:  E(RB3LYP) =  -1398.76362878     A.U. after    9 cycles
 SCF Done:  E(RB3LYP) =  -1398.76362930     A.U. after    9 cycles
 SCF Done:  E(RB3LYP) =  -1398.76362950     A.U. after    9 cycles
 Optimization completed.
    -- Stationary point found.
 Normal termination of Gaussian 09 at Fri Feb 16 21:27:37 2018.

 --------------------------------------------------------------------
 #N Geom=AllCheck Guess=TCheck SCRF=Check GenChk RB3LYP/6-31G(d) Freq
 --------------------------------------------------------------------

 Structure from the checkpoint file:  frag45-conf1.chk
 -----------------------------
 Optimization for frag45-conf1
 -----------------------------
 Charge =  0 Multiplicity = 1

                         Standard orientation:
 ---------------------------------------------------------------------
 Center     Atomic      Atomic             Coordinates (Angstroms)
 Number     Number       Type             X           Y           Z
 ---------------------------------------------------------------------
      1          6           0       -2.671558    1.064294    0.440334
      2          6           0       -1.489826    1.801688    0.385328
      3          6           0       -1.469407   -0.871408   -0.384593
      4          6           0       -0.272693   -0.146056   -0.442767
      5          6           0       -2.649381   -0.272459    0.051235
      6          6           0       -0.308918    1.201842   -0.049875
      7          6           0        3.265719   -0.869048    0.066953
      8          6           0        4.082239   -1.141451    1.321538
      9          6           0        0.991943   -0.836490   -0.909094
     10          7           0        1.917229   -1.088199    0.186670
     11          8           0        3.779300   -0.474263   -0.970907
     12         17           0       -4.127135   -1.220189    0.109526
     13         17           0        1.144280    2.184807   -0.113650
     14          1           0       -3.593840    1.524815    0.777121
     15          1           0       -1.484778    2.846617    0.676357
     16          1           0       -1.476441   -1.913777   -0.687864
     17          1           0        4.899787   -1.822584    1.068776
     18          1           0        4.531255   -0.201384    1.657779
     19          1           0        3.501647   -1.568938    2.145251
     20          1           0        0.720207   -1.775993   -1.408583
     21          1           0        1.542308   -0.228632   -1.632258
     22          1           0        1.544695   -1.432620    1.059736
 ---------------------------------------------------------------------

 SCF Done:  E(RB3LYP) =  -1398.76362950     A.U. after    1 cycles

 Isotropic polarizability for W=    0.000000      122.60 Bohr**3.
 End of Minotr Frequency-dependent properties file   721 does not exist.

                     1                      2                      3
                     A                      A                      A
 Frequencies --    28.8054                35.7117                47.0127
 Red. masses --     3.5631                 4.3222                 1.5320
 Frc consts  --     0.0017                 0.0032                 0.0020
 IR Inten    --     0.5800                 4.2714                 6.0668

                     4                      5                      6
                     A                      A                      A
 Frequencies --    71.1449                98.1699               163.5178
 Red. masses --     2.6663                 9.9154                 6.7642
 Frc consts  --     0.0080                 0.0563                 0.1066
 IR Inten    --     4.6661                 1.0488                 1.8356

                     7                      8                      9
                     A                      A                      A
 Frequencies --   181.9971               213.7925               269.2348
 Red. masses --     8.6484                 6.6565                 7.3170
 Frc consts  --     0.1688                 0.1793                 0.3125
 IR Inten    --     4.7858                 4.5357                 1.9789

                    10                     11                     12
                     A                      A                      A
 Frequencies --   284.1402               321.0881               330.4628
 Red. masses --     2.6859                 6.1388                23.3955
 Frc consts  --     0.1278                 0.3729                 1.5053
 IR Inten    --     4.5723                 0.1153                 0.0770

                    13                     14                     15
                     A                      A                      A
 Frequencies --   414.7386               418.2318               446.7415
 Red. masses --     2.7603                 1.3260                 3.0991
 Frc consts  --     0.2797                 0.1367                 0.3644
 IR Inten    --    13.8261                78.9252                 5.2641

                    16                     17                     18
                     A                      A                      A
 Frequencies --   476.4778               537.9524               570.5831
 Red. masses --     3.4364                 4.8185                 6.8566
 Frc consts  --     0.4597                 0.8216                 1.3152
 IR Inten    --    18.9921                22.0013                15.2285

                    19                     20                     21
                     A                      A                      A
 Frequencies --   613.4738               632.7031               636.5179
 Red. masses --     3.9127                 2.7349                 4.4401
 Frc consts  --     0.8676                 0.6450                 1.0599
 IR Inten    --     6.9100                 0.3163                 1.0016

                    22                     23                     24
                     A                      A                      A
 Frequencies --   713.9267               737.1203               829.2371
 Red. masses --     5.6845                 5.2393                 1.3428
 Frc consts  --     1.7071                 1.6772                 0.5440
 IR Inten    --     0.9270                 1.8952                26.8121

                    25                     26                     27
                     A                      A                      A
 Frequencies --   887.8254               898.8602               922.5223
 Red. masses --     3.4510                 1.7229                 2.4928
 Frc consts  --     1.6027                 0.8202                 1.2500
 IR Inten    --    17.4838                14.6718                 6.4754

                    28                     29                     30
                     A                      A                      A
 Frequencies --   956.2762              1003.8916              1033.9319
 Red. masses --     1.3028                 1.6450                 2.4184
 Frc consts  --     0.7019                 0.9768                 1.5232
 IR Inten    --     0.0417                12.0196                13.4572

                    31                     32                     33
                     A                      A                      A
 Frequencies --  1063.3795              1069.1183              1119.5845
 Red. masses --     3.9214                 2.0681                 3.6587
 Frc consts  --     2.6125                 1.3928                 2.7020
 IR Inten    --    39.5207                30.5492                 3.5878

                    34                     35                     36
                     A                      A                      A
 Frequencies --  1127.0042              1167.9001              1228.9725
 Red. masses --     2.1347                 1.4869                 2.3539
 Frc consts  --     1.5975                 1.1949                 2.0947
 IR Inten    --    51.5221                 2.4986                16.4251

                    37                     38                     39
                     A                      A                      A
 Frequencies --  1251.6689              1271.8485              1303.4518
 Red. masses --     1.3205                 1.8771                 1.3701
 Frc consts  --     1.2189                 1.7890                 1.3715
 IR Inten    --     2.1151               142.7433                29.2304

                    40                     41                     42
                     A                      A                      A
 Frequencies --  1337.3040              1390.7495              1426.1840
 Red. masses --     5.2301                 1.4104                 1.2839
 Frc consts  --     5.5109                 1.6073                 1.5387
 IR Inten    --     6.3896                 4.6935                28.9733

                    43                     44                     45
                     A                      A                      A
 Frequencies --  1440.7648              1500.7410              1510.9327
 Red. masses --     2.8692                 1.0473                 2.2867
 Frc consts  --     3.5091                 1.3897                 3.0757
 IR Inten    --    14.5497                 8.9746                89.4951

                    46                     47                     48
                     A                      A                      A
 Frequencies --  1515.9271              1532.9473              1548.9891
 Red. masses --     1.0738                 1.1270                 1.8995
 Frc consts  --     1.4538                 1.5604                 2.6852
 IR Inten    --    24.7512                10.9058               267.7481

                    49                     50                     51
                     A                      A                      A
 Frequencies --  1616.6604              1640.2636              1789.7142
 Red. masses --     6.5599                 6.6942                 9.3560
 Frc consts  --    10.1015                10.6114                17.6566
 IR Inten    --     3.8322                 6.4449               249.6701

                    52                     53                     54
                     A                      A                      A
 Frequencies --  3040.2549              3064.3974              3127.2341
 Red. masses --     1.0709                 1.0359                 1.0923
 Frc consts  --     5.8320                 5.7315                 6.2935
 IR Inten    --    37.6760                 8.6591                 8.5675

                    55                     56                     57
                     A                      A                      A
 Frequencies --  3137.2181              3146.0358              3211.2633
 Red. masses --     1.1028                 1.1018                 1.0911
 Frc consts  --     6.3950                 6.4254                 6.6290
 IR Inten    --    14.5454                 9.7442                 1.8947

                    58                     59                     60
                     A                      A                      A
 Frequencies --  3219.4068              3232.9766              3630.3495
 Red. masses --     1.0888                 1.0955                 1.0779
 Frc consts  --     6.6490                 6.7461                 8.3697
 IR Inten    --     0.6648                 1.5815                16.7094

 - Thermochemistry -
 -------------------
 Temperature   298.150 Kelvin.  Pressure   1.00000 Atm.
 Atom     1 has atomic number  6 and mass  12.00000

 Molecular mass:   217.00612 amu.
 Principal axes and moments of inertia in atomic units:
                           1         2         3
     Eigenvalues --  1599.952765846.786816937.16113
           X            0.99954  -0.02817   0.01086
           Y            0.02817   0.99960   0.00017
           Z           -0.01086   0.00013   0.99994
 This molecule is an asymmetric top.
 Rotational symmetry number  1.
 Warning -- assumption of classical behavior for rotation
           may cause significant error
 Rotational temperatures (Kelvin)      0.05414     0.01481     0.01249
 Rotational constants (GHZ):           1.12800     0.30867     0.26016
 Zero-point vibrational energy     433283.4 (Joules/Mol)
                                  103.55722 (Kcal/Mol)
 Warning -- explicit consideration of  19 degrees of freedom as
           vibrations may cause significant error
 Vibrational temperatures:     41.44    51.38    67.64   102.36   141.24
          (Kelvin)            235.27   261.85   307.60   387.37   408.81
                              461.97   475.46   596.72   601.74   642.76
                              685.54   773.99   820.94   882.65   910.32
                              915.81  1027.18  1060.55  1193.09  1277.38
                             1293.26  1327.30  1375.87  1444.37  1487.60
                             1529.96  1538.22  1610.83  1621.51  1680.35
                             1768.22  1800.87  1829.90  1875.37  1924.08
                             2000.98  2051.96  2072.94  2159.23  2173.89
                             2181.08  2205.57  2228.65  2326.01  2359.97
                             2575.00  4374.24  4408.98  4499.39  4513.75
                             4526.44  4620.29  4632.00  4651.53  5223.26

 Zero-point correction=                           0.165029 (Hartree/Particle)
 Thermal correction to Energy=                    0.178094
 Thermal correction to Enthalpy=                  0.179038
 Thermal correction to Gibbs Free Energy=         0.122665
 Sum of electronic and zero-point Energies=          -1398.598601
 Sum of electronic and thermal Energies=             -1398.585536
 Sum of electronic and thermal Enthalpies=           -1398.584591
 Sum of electronic and thermal Free Energies=        -1398.640965

                     E (Thermal)             CV                S
                      KCal/Mol        Cal/Mol-Kelvin    Cal/Mol-Kelvin
 Total                  111.756             46.532            118.648
 Electronic               0.000              0.000              0.000
 Translational            0.889              2.981             42.027
 Rotational               0.889              2.981             32.540
 Vibrational            109.978             40.570             44.080
 Vibration     1          0.593              1.984              5.910
 Vibration     2          0.594              1.982              5.484
 Vibration     3          0.595              1.979              4.939
 Vibration     4          0.598              1.968              4.121
 Vibration     5          0.604              1.950              3.490
 Vibration     6          0.623              1.887              2.509
 Vibration     7          0.630              1.864              2.308
 Vibration     8          0.644              1.820              2.011
 Vibration     9          0.674              1.730              1.601
 Vibration    10          0.683              1.703              1.509
 Vibration    11          0.707              1.633              1.305
 Vibration    12          0.713              1.615              1.258
 Vibration    13          0.778              1.438              0.910
 Vibration    14          0.781              1.431              0.898
 Vibration    15          0.806              1.368              0.806
 Vibration    16          0.833              1.302              0.720
 Vibration    17          0.893              1.166              0.570
 Vibration    18          0.927              1.095              0.503
 Vibration    19          0.973              1.003              0.427

 Optimization completed.
    -- Stationary point found.
 Normal termination of Gaussian 09 at Fri Feb 16 21:48:30 2018.
