 Gaussian 09, Revision C.01,
 Gaussian 09:  AM64L-G09RevC.01 23-Sep-2011

 ----------------------------------------------------------------------
 #HF/6-31G* Geom=AllCheck Guess=Read Pop=(MK,ReadRadii) Integral=(Grid=
 UltraFine) iop(6/33=2)
 ----------------------------------------------------------------------

 Structure from the checkpoint file:  frag45-conf1.chk
 -----------------------------
 Optimization for frag45-conf1
 -----------------------------
 Charge =  0 Multiplicity = 1

                         Standard orientation:
 ---------------------------------------------------------------------
 Center     Atomic      Atomic             Coordinates (Angstroms)
 Number     Number       Type             X           Y           Z
 ---------------------------------------------------------------------
      1          6           0       -2.671558    1.064294    0.440334
      2          6           0       -1.489826    1.801688    0.385328
      3          6           0       -1.469407   -0.871408   -0.384593
      4          6           0       -0.272693   -0.146056   -0.442767
      5          6           0       -2.649381   -0.272459    0.051235
      6          6           0       -0.308918    1.201842   -0.049875
      7          6           0        3.265719   -0.869048    0.066953
      8          6           0        4.082239   -1.141451    1.321538
      9          6           0        0.991943   -0.836490   -0.909094
     10          7           0        1.917229   -1.088199    0.186670
     11          8           0        3.779300   -0.474263   -0.970907
     12         17           0       -4.127135   -1.220189    0.109526
     13         17           0        1.144280    2.184807   -0.113650
     14          1           0       -3.593840    1.524815    0.777121
     15          1           0       -1.484778    2.846617    0.676357
     16          1           0       -1.476441   -1.913777   -0.687864
     17          1           0        4.899787   -1.822584    1.068776
     18          1           0        4.531255   -0.201384    1.657779
     19          1           0        3.501647   -1.568938    2.145251
     20          1           0        0.720207   -1.775993   -1.408583
     21          1           0        1.542308   -0.228632   -1.632258
     22          1           0        1.544695   -1.432620    1.059736
 ---------------------------------------------------------------------

 SCF Done:  E(RHF) =  -1394.34557590     A.U. after   14 cycles

 The electronic state is 1-A.
 Alpha  occ. eigenvalues -- -104.83958-104.83489 -20.52213 -15.59570 -11.35673
 Alpha  occ. eigenvalues --  -11.32369 -11.32254 -11.28368 -11.28053 -11.27319
 Alpha  occ. eigenvalues --  -11.27248 -11.27198 -11.24091 -10.57258 -10.56785
 Alpha  occ. eigenvalues --   -8.04195  -8.03861  -8.03858  -8.03721  -8.03385
 Alpha  occ. eigenvalues --   -8.03382  -1.37512  -1.23886  -1.21023  -1.16448
 Alpha  occ. eigenvalues --   -1.10219  -1.07010  -1.01330  -0.98728  -0.93871
 Alpha  occ. eigenvalues --   -0.85709  -0.81292  -0.79383  -0.70438  -0.69668
 Alpha  occ. eigenvalues --   -0.67826  -0.65688  -0.64984  -0.62385  -0.59956
 Alpha  occ. eigenvalues --   -0.58879  -0.58110  -0.57564  -0.56450  -0.55310
 Alpha  occ. eigenvalues --   -0.54068  -0.51923  -0.51415  -0.50307  -0.46612
 Alpha  occ. eigenvalues --   -0.45941  -0.45591  -0.42036  -0.39442  -0.36378
 Alpha  occ. eigenvalues --   -0.33980
 Alpha virt. eigenvalues --    0.10362   0.10830   0.17109   0.19756   0.20847
 Alpha virt. eigenvalues --    0.21718   0.25523   0.27136   0.27508   0.30307
 Alpha virt. eigenvalues --    0.31031   0.31443   0.31861   0.32664   0.33409

 Mulliken atomic charges:
              1
     1  C   -0.178569
     2  C   -0.172649
     3  C   -0.202649
     4  C    0.035148
     5  C   -0.132530
     6  C   -0.157436
     7  C    0.770087
     8  C   -0.577413
     9  C   -0.139516
    10  N   -0.805234
    11  O   -0.620746
    12  Cl   0.007656
    13  Cl   0.027885
    14  H    0.242479
    15  H    0.242893
    16  H    0.239197
    17  H    0.209366
    18  H    0.211581
    19  H    0.166103
    20  H    0.187999
    21  H    0.259454
    22  H    0.386896
 Sum of Mulliken atomic charges =   0.00000

 Dipole moment (field-independent basis, Debye):
    X=             -1.8327    Y=             -1.0015    Z=              3.0065  Tot=              3.6607
 Quadrupole moment (field-independent basis, Debye-Ang):
   XX=           -102.8142   YY=            -84.7495   ZZ=            -90.7496
   XY=             -8.4239   XZ=             10.3432   YZ=              0.3877

 Normal termination of Gaussian 09 at Sat Feb 17 21:05:21 2018.
