 Gaussian 09, Revision C.01,
 Gaussian 09:  AM64L-G09RevC.01 23-Sep-2011

 ---------------------------------------------------------
 #B3LYP/6-31G* Integral=(Grid=UltraFine) freq Opt pop=none
 ---------------------------------------------------------

 99/9=1/99;
 -----------------------------
 Optimization for frag34-conf1
 -----------------------------
 Charge =  0 Multiplicity = 1

 SCF Done:  E(RB3LYP) =  -1449.58919655     A.U. after   15 cycles
 SCF Done:  E(RB3LYP) =  -1449.59277402     A.U. after   12 cycles
 SCF Done:  E(RB3LYP) =  -1449.59311446     A.U. after   11 cycles
 SCF Done:  E(RB3LYP) =  -1449.59317839     A.U. after   11 cycles
 SCF Done:  E(RB3LYP) =  -1449.59322047     A.U. after   11 cycles
 SCF Done:  E(RB3LYP) =  -1449.59326477     A.U. after   11 cycles
 SCF Done:  E(RB3LYP) =  -1449.59328047     A.U. after   11 cycles
 SCF Done:  E(RB3LYP) =  -1449.59328342     A.U. after   10 cycles
 SCF Done:  E(RB3LYP) =  -1449.59328486     A.U. after    9 cycles
 SCF Done:  E(RB3LYP) =  -1449.59328543     A.U. after    8 cycles
 SCF Done:  E(RB3LYP) =  -1449.59328565     A.U. after    8 cycles
 SCF Done:  E(RB3LYP) =  -1449.59328586     A.U. after    8 cycles
 SCF Done:  E(RB3LYP) =  -1449.59328604     A.U. after    8 cycles
 SCF Done:  E(RB3LYP) =  -1449.59328611     A.U. after    8 cycles
 Optimization completed.
    -- Stationary point found.
 Normal termination of Gaussian 09 at Fri Feb 16 20:44:44 2018.

 --------------------------------------------------------------------
 #N Geom=AllCheck Guess=TCheck SCRF=Check GenChk RB3LYP/6-31G(d) Freq
 --------------------------------------------------------------------

 Structure from the checkpoint file:  frag34-conf1.chk
 -----------------------------
 Optimization for frag34-conf1
 -----------------------------
 Charge =  0 Multiplicity = 1

                         Standard orientation:
 ---------------------------------------------------------------------
 Center     Atomic      Atomic             Coordinates (Angstroms)
 Number     Number       Type             X           Y           Z
 ---------------------------------------------------------------------
      1          6           0        1.298868   -1.622112   -0.140718
      2          6           0       -0.069360   -1.396587   -0.257555
      3          6           0        0.308170    0.995149   -0.077796
      4          6           0        2.190230   -0.548023    0.012726
      5          6           0       -0.557264   -0.091589   -0.218880
      6          6           0        1.672016    0.764232    0.041087
      7          6           0       -4.302438   -0.675274    1.183069
      8          6           0        4.100440   -1.978732    0.097440
      9          7           0       -2.878369   -0.297195    1.134093
     10          8           0       -2.498075    1.652233   -0.570392
     11          8           0       -2.871645   -0.747613   -1.354784
     12          8           0        3.528773   -0.675710    0.133926
     13         16           0       -2.312198    0.204986   -0.391448
     14         17           0        2.765061    2.117103    0.221049
     15          1           0        1.673758   -2.638090   -0.173953
     16          1           0       -0.752423   -2.229224   -0.385678
     17          1           0       -0.080486    2.006940   -0.073602
     18          1           0       -4.474641   -1.471857    0.458455
     19          1           0       -4.986837    0.156323    0.970980
     20          1           0       -4.503932   -1.060130    2.186541
     21          1           0        5.174911   -1.828974    0.208832
     22          1           0        3.897757   -2.476747   -0.858571
     23          1           0        3.730523   -2.600392    0.922050
     24          1           0       -2.657315    0.438328    1.805390
 ---------------------------------------------------------------------

 SCF Done:  E(RB3LYP) =  -1449.59328611     A.U. after    1 cycles

 Isotropic polarizability for W=    0.000000      129.15 Bohr**3.
 End of Minotr Frequency-dependent properties file   721 does not exist.

                     1                      2                      3
                     A                      A                      A
 Frequencies --    18.9662                49.9288                58.3113
 Red. masses --     6.4837                 2.5858                 3.6387
 Frc consts  --     0.0014                 0.0038                 0.0073
 IR Inten    --     2.2302                 2.7072                 2.7363

                     4                      5                      6
                     A                      A                      A
 Frequencies --   104.0208               132.7621               141.4753
 Red. masses --     3.4812                 6.3952                 4.1973
 Frc consts  --     0.0222                 0.0664                 0.0495
 IR Inten    --     1.5323                 2.0385                 3.4931

                     7                      8                      9
                     A                      A                      A
 Frequencies --   170.3370               183.5646               212.8083
 Red. masses --     1.4435                 5.3384                 3.2224
 Frc consts  --     0.0247                 0.1060                 0.0860
 IR Inten    --     1.5713                 0.8930                 2.6864

                    10                     11                     12
                     A                      A                      A
 Frequencies --   246.3303               258.5457               269.5536
 Red. masses --     1.2510                 6.4678                 7.2378
 Frc consts  --     0.0447                 0.2547                 0.3098
 IR Inten    --     1.3536                 3.0641                 0.6675

                    13                     14                     15
                     A                      A                      A
 Frequencies --   292.7181               335.3288               376.1152
 Red. masses --     3.9370                 4.1980                 5.3388
 Frc consts  --     0.1988                 0.2781                 0.4450
 IR Inten    --     9.4951                 7.0211                 0.1027

                    16                     17                     18
                     A                      A                      A
 Frequencies --   408.3237               444.5316               457.0607
 Red. masses --     6.6311                 7.0690                 3.5763
 Frc consts  --     0.6514                 0.8230                 0.4402
 IR Inten    --     6.1166                 9.3366                 1.1252

                    19                     20                     21
                     A                      A                      A
 Frequencies --   489.8048               545.6762               573.0600
 Red. masses --     7.5091                 5.6944                 4.3407
 Frc consts  --     1.0614                 0.9990                 0.8399
 IR Inten    --     1.4572                19.8385                 6.9599

                    22                     23                     24
                     A                      A                      A
 Frequencies --   588.5448               647.9912               681.7188
 Red. masses --     6.1343                 5.1907                 5.7524
 Frc consts  --     1.2519                 1.2842                 1.5751
 IR Inten    --   108.3347                79.7874               121.7936

                    25                     26                     27
                     A                      A                      A
 Frequencies --   718.9570               731.8098               822.1424
 Red. masses --     4.5765                 5.6553                 1.4975
 Frc consts  --     1.3938                 1.7844                 0.5963
 IR Inten    --     7.4567                20.4626                32.6119

                    28                     29                     30
                     A                      A                      A
 Frequencies --   832.8712               861.3509               921.1795
 Red. masses --     1.6986                 5.0417                 1.3060
 Frc consts  --     0.6942                 2.2039                 0.6530
 IR Inten    --    73.7915                82.0894                 7.9663

                    31                     32                     33
                     A                      A                      A
 Frequencies --   946.5132              1054.8319              1056.6374
 Red. masses --     1.3083                 4.4444                 4.8380
 Frc consts  --     0.6906                 2.9136                 3.1825
 IR Inten    --     1.1450                28.3724                98.7930

                    34                     35                     36
                     A                      A                      A
 Frequencies --  1094.1440              1098.2040              1144.0534
 Red. masses --     2.9273                 7.4300                 2.7154
 Frc consts  --     2.0648                 5.2796                 2.0940
 IR Inten    --    70.4819               111.5766                87.1323

                    37                     38                     39
                     A                      A                      A
 Frequencies --  1153.3916              1157.9466              1183.5677
 Red. masses --     1.6629                 1.5403                 1.2679
 Frc consts  --     1.3034                 1.2168                 1.0465
 IR Inten    --   104.0019                68.7977                 0.9789

                    40                     41                     42
                     A                      A                      A
 Frequencies --  1184.7275              1219.7934              1288.1823
 Red. masses --     1.3178                 1.3491                 1.5779
 Frc consts  --     1.0898                 1.1826                 1.5427
 IR Inten    --    18.6569                 2.0416                33.2483

                    43                     44                     45
                     A                      A                      A
 Frequencies --  1314.9125              1325.3961              1358.9574
 Red. masses --     6.8851                 3.4010                 7.1675
 Frc consts  --     7.0139                 3.5200                 7.7988
 IR Inten    --   120.3691               227.9039                58.4451

                    46                     47                     48
                     A                      A                      A
 Frequencies --  1431.2307              1441.6739              1470.8905
 Red. masses --     3.1278                 1.3543                 1.1491
 Frc consts  --     3.7749                 1.6584                 1.4648
 IR Inten    --    24.9438                39.4478                 4.6934

                    49                     50                     51
                     A                      A                      A
 Frequencies --  1497.1141              1520.5630              1523.4478
 Red. masses --     1.2862                 1.0527                 1.0475
 Frc consts  --     1.6985                 1.4341                 1.4324
 IR Inten    --    40.5560                12.7600                 7.0872

                    52                     53                     54
                     A                      A                      A
 Frequencies --  1529.9160              1541.0371              1543.6713
 Red. masses --     1.1331                 2.0974                 1.0428
 Frc consts  --     1.5626                 2.9347                 1.4641
 IR Inten    --    73.9741                61.4730                 9.1051

                    55                     56                     57
                     A                      A                      A
 Frequencies --  1617.7679              1642.6556              3038.1049
 Red. masses --     7.0617                 5.9531                 1.0342
 Frc consts  --    10.8891                 9.4643                 5.6242
 IR Inten    --     1.8929                94.2587                49.4411

                    58                     59                     60
                     A                      A                      A
 Frequencies --  3045.4228              3103.3553              3124.8980
 Red. masses --     1.0438                 1.1075                 1.0960
 Frc consts  --     5.7040                 6.2843                 6.3054
 IR Inten    --    59.6391                32.9465                19.5629

                    61                     62                     63
                     A                      A                      A
 Frequencies --  3172.4141              3178.6278              3224.9119
 Red. masses --     1.1007                 1.1014                 1.0879
 Frc consts  --     6.5270                 6.5563                 6.6662
 IR Inten    --    16.8672                 4.0974                 1.7646

                    64                     65                     66
                     A                      A                      A
 Frequencies --  3238.2250              3241.5527              3500.6859
 Red. masses --     1.0936                 1.0916                 1.0746
 Frc consts  --     6.7565                 6.7581                 7.7591
 IR Inten    --     3.5072                 6.4009                11.0537

 - Thermochemistry -
 -------------------
 Temperature   298.150 Kelvin.  Pressure   1.00000 Atm.
 Atom     1 has atomic number  6 and mass  12.00000

 Molecular mass:   235.00699 amu.
 Principal axes and moments of inertia in atomic units:
                           1         2         3
     Eigenvalues --  1687.872276240.141987293.87718
           X            0.99968  -0.02169  -0.01317
           Y            0.02160   0.99975  -0.00639
           Z            0.01331   0.00611   0.99989
 This molecule is an asymmetric top.
 Rotational symmetry number  1.
 Warning -- assumption of classical behavior for rotation
           may cause significant error
 Rotational temperatures (Kelvin)      0.05132     0.01388     0.01187
 Rotational constants (GHZ):           1.06924     0.28921     0.24743
 Zero-point vibrational energy     471240.2 (Joules/Mol)
                                  112.62912 (Kcal/Mol)
 Warning -- explicit consideration of  22 degrees of freedom as
           vibrations may cause significant error
 Vibrational temperatures:     27.29    71.84    83.90   149.66   191.01
          (Kelvin)            203.55   245.08   264.11   306.18   354.41
                              371.99   387.83   421.16   482.46   541.15
                              587.49   639.58   657.61   704.72   785.11
                              824.50   846.78   932.31   980.84  1034.42
                             1052.91  1182.88  1198.31  1239.29  1325.37
                             1361.82  1517.67  1520.26  1574.23  1580.07
                             1646.04  1659.47  1666.02  1702.89  1704.56
                             1755.01  1853.40  1891.86  1906.95  1955.23
                             2059.22  2074.24  2116.28  2154.01  2187.75
                             2191.90  2201.21  2217.21  2221.00  2327.60
                             2363.41  4371.15  4381.68  4465.03  4496.03
                             4564.39  4573.33  4639.92  4659.08  4663.87
                             5036.70

 Zero-point correction=                           0.179486 (Hartree/Particle)
 Thermal correction to Energy=                    0.193903
 Thermal correction to Enthalpy=                  0.194847
 Thermal correction to Gibbs Free Energy=         0.136326
 Sum of electronic and zero-point Energies=          -1449.413800
 Sum of electronic and thermal Energies=             -1449.399383
 Sum of electronic and thermal Enthalpies=           -1449.398439
 Sum of electronic and thermal Free Energies=        -1449.456960

                     E (Thermal)             CV                S
                      KCal/Mol        Cal/Mol-Kelvin    Cal/Mol-Kelvin
 Total                  121.676             51.951            123.168
 Electronic               0.000              0.000              0.000
 Translational            0.889              2.981             42.265
 Rotational               0.889              2.981             32.707
 Vibrational            119.898             45.989             48.195
 Vibration     1          0.593              1.986              6.740
 Vibration     2          0.595              1.978              4.820
 Vibration     3          0.596              1.974              4.514
 Vibration     4          0.605              1.946              3.378
 Vibration     5          0.613              1.921              2.906
 Vibration     6          0.615              1.912              2.784
 Vibration     7          0.625              1.879              2.432
 Vibration     8          0.631              1.862              2.292
 Vibration     9          0.644              1.821              2.019
 Vibration    10          0.661              1.769              1.757
 Vibration    11          0.667              1.748              1.672
 Vibration    12          0.674              1.729              1.599
 Vibration    13          0.688              1.687              1.458
 Vibration    14          0.716              1.605              1.234
 Vibration    15          0.747              1.521              1.055
 Vibration    16          0.773              1.452              0.933
 Vibration    17          0.804              1.373              0.812
 Vibration    18          0.815              1.345              0.775
 Vibration    19          0.846              1.273              0.684
 Vibration    20          0.901              1.149              0.553
 Vibration    21          0.929              1.090              0.498
 Vibration    22          0.946              1.056              0.470

 Optimization completed.
    -- Stationary point found.
 Normal termination of Gaussian 09 at Fri Feb 16 21:06:21 2018.
