 Gaussian 09, Revision C.01,
 Gaussian 09:  AM64L-G09RevC.01 23-Sep-2011

 ----------------------------------------------------------------------
 #HF/6-31G* Geom=AllCheck Guess=Read Pop=(MK,ReadRadii) Integral=(Grid=
 UltraFine) iop(6/33=2)
 ----------------------------------------------------------------------

 Structure from the checkpoint file:  frag34-conf1.chk
 -----------------------------
 Optimization for frag34-conf1
 -----------------------------
 Charge =  0 Multiplicity = 1

                         Standard orientation:
 ---------------------------------------------------------------------
 Center     Atomic      Atomic             Coordinates (Angstroms)
 Number     Number       Type             X           Y           Z
 ---------------------------------------------------------------------
      1          6           0        1.298868   -1.622112   -0.140718
      2          6           0       -0.069360   -1.396587   -0.257555
      3          6           0        0.308170    0.995149   -0.077796
      4          6           0        2.190230   -0.548023    0.012726
      5          6           0       -0.557264   -0.091589   -0.218880
      6          6           0        1.672016    0.764232    0.041087
      7          6           0       -4.302438   -0.675274    1.183069
      8          6           0        4.100440   -1.978732    0.097440
      9          7           0       -2.878369   -0.297195    1.134093
     10          8           0       -2.498075    1.652233   -0.570392
     11          8           0       -2.871645   -0.747613   -1.354784
     12          8           0        3.528773   -0.675710    0.133926
     13         16           0       -2.312198    0.204986   -0.391448
     14         17           0        2.765061    2.117103    0.221049
     15          1           0        1.673758   -2.638090   -0.173953
     16          1           0       -0.752423   -2.229224   -0.385678
     17          1           0       -0.080486    2.006940   -0.073602
     18          1           0       -4.474641   -1.471857    0.458455
     19          1           0       -4.986837    0.156323    0.970980
     20          1           0       -4.503932   -1.060130    2.186541
     21          1           0        5.174911   -1.828974    0.208832
     22          1           0        3.897757   -2.476747   -0.858571
     23          1           0        3.730523   -2.600392    0.922050
     24          1           0       -2.657315    0.438328    1.805390
 ---------------------------------------------------------------------

 SCF Done:  E(RHF) =  -1444.69018835     A.U. after   14 cycles

 The electronic state is 1-A.
 Alpha  occ. eigenvalues -- -104.83193 -92.21480 -20.62121 -20.56065 -20.55901
 Alpha  occ. eigenvalues --  -15.61216 -11.34778 -11.31653 -11.30895 -11.28560
 Alpha  occ. eigenvalues --  -11.28365 -11.28312 -11.27450 -11.26682 -10.56462
 Alpha  occ. eigenvalues --   -9.18562  -8.03407  -8.03060  -8.03058  -6.87144
 Alpha  occ. eigenvalues --   -6.87130  -6.87066  -1.45433  -1.44143  -1.33663
 Alpha  occ. eigenvalues --   -1.23037  -1.20196  -1.13533  -1.06236  -1.02416
 Alpha  occ. eigenvalues --   -0.98495  -0.95182  -0.87932  -0.85811  -0.80963
 Alpha  occ. eigenvalues --   -0.74806  -0.73123  -0.70774  -0.69087  -0.67862
 Alpha  occ. eigenvalues --   -0.66641  -0.65024  -0.62628  -0.61470  -0.60976
 Alpha  occ. eigenvalues --   -0.60370  -0.58613  -0.56832  -0.56503  -0.55204
 Alpha  occ. eigenvalues --   -0.51472  -0.51094  -0.50406  -0.49526  -0.48106
 Alpha  occ. eigenvalues --   -0.47415  -0.46550  -0.45164  -0.42529  -0.36508
 Alpha  occ. eigenvalues --   -0.33880
 Alpha virt. eigenvalues --    0.09734   0.10882   0.18372   0.21215   0.22478
 Alpha virt. eigenvalues --    0.25112   0.25579   0.26728   0.27208   0.27884
 Alpha virt. eigenvalues --    0.29173   0.29705   0.30036   0.30361   0.31419

 Mulliken atomic charges:
              1
     1  C   -0.286007
     2  C   -0.135099
     3  C   -0.139430
     4  C    0.498894
     5  C   -0.349821
     6  C   -0.216276
     7  C   -0.325319
     8  C   -0.198050
     9  N   -0.852988
    10  O   -0.686195
    11  O   -0.704979
    12  O   -0.637787
    13  S    1.665113
    14  Cl   0.040131
    15  H    0.230413
    16  H    0.262193
    17  H    0.291143
    18  H    0.226290
    19  H    0.183119
    20  H    0.189910
    21  H    0.209214
    22  H    0.174659
    23  H    0.172262
    24  H    0.388610
 Sum of Mulliken atomic charges =   0.00000

 Dipole moment (field-independent basis, Debye):
    X=              1.9320    Y=             -4.2160    Z=              3.6034  Tot=              5.8730
 Quadrupole moment (field-independent basis, Debye-Ang):
   XX=            -90.2696   YY=            -92.8820   ZZ=            -98.9960
   XY=             -8.7676   XZ=            -13.8830   YZ=              1.3352

 Normal termination of Gaussian 09 at Sat Feb 17 21:03:02 2018.
