 Gaussian 09, Revision C.01,
 Gaussian 09:  AM64L-G09RevC.01 23-Sep-2011

 ----------------------------------------------------------------------
 #HF/6-31G* Geom=AllCheck Guess=Read Pop=(MK,ReadRadii) Integral=(Grid=
 UltraFine) iop(6/33=2)
 ----------------------------------------------------------------------

 Structure from the checkpoint file:  frag39-conf2.chk
 -----------------------------
 Optimization for frag39-conf2
 -----------------------------
 Charge =  0 Multiplicity = 1

                         Standard orientation:
 ---------------------------------------------------------------------
 Center     Atomic      Atomic             Coordinates (Angstroms)
 Number     Number       Type             X           Y           Z
 ---------------------------------------------------------------------
      1          6           0       -1.324626    0.054417    0.161105
      2          6           0       -2.528851    0.071583   -0.771664
      3          6           0        2.094848    1.142110   -0.429768
      4          6           0        2.161388   -0.365541   -0.171821
      5          6           0        0.926109   -0.925899    0.549165
      6          7           0       -0.308237   -0.784459   -0.211379
      7          8           0       -1.285747    0.743581    1.172991
      8          1           0       -2.430511   -0.588379   -1.639822
      9          1           0       -3.417486   -0.220378   -0.203575
     10          1           0       -2.688954    1.096195   -1.120989
     11          1           0        1.240444    1.397655   -1.065705
     12          1           0        1.984110    1.698228    0.507924
     13          1           0        3.003257    1.495926   -0.930053
     14          1           0        3.041174   -0.601869    0.442210
     15          1           0        2.302404   -0.901404   -1.122180
     16          1           0        1.081904   -1.987393    0.783990
     17          1           0        0.758274   -0.396088    1.490435
     18          1           0       -0.404186   -1.309939   -1.068608
 ---------------------------------------------------------------------

 SCF Done:  E(RHF) =  -325.075373165     A.U. after   13 cycles

 The electronic state is 1-A.
 Alpha  occ. eigenvalues --  -20.51497 -15.58613 -11.35070 -11.25997 -11.23747
 Alpha  occ. eigenvalues --  -11.22770 -11.21307  -1.36730  -1.22348  -1.05349
 Alpha  occ. eigenvalues --   -0.99806  -0.92191  -0.81396  -0.78288  -0.67807
 Alpha  occ. eigenvalues --   -0.65388  -0.62831  -0.60215  -0.59297  -0.57351
 Alpha  occ. eigenvalues --   -0.55085  -0.54009  -0.52037  -0.48855  -0.48341
 Alpha  occ. eigenvalues --   -0.47840  -0.41105  -0.37995
 Alpha virt. eigenvalues --    0.19925   0.21207   0.24814   0.26488   0.29272
 Alpha virt. eigenvalues --    0.29861   0.30645   0.32058   0.32324   0.33615
 Alpha virt. eigenvalues --    0.34440   0.34557   0.38702   0.39471   0.43221

 Mulliken atomic charges:
              1
     1  C    0.760944
     2  C   -0.576982
     3  C   -0.477271
     4  C   -0.307762
     5  C   -0.118827
     6  N   -0.804530
     7  O   -0.626568
     8  H    0.163010
     9  H    0.207982
    10  H    0.206889
    11  H    0.161062
    12  H    0.174190
    13  H    0.159435
    14  H    0.161304
    15  H    0.144719
    16  H    0.168037
    17  H    0.225517
    18  H    0.378851
 Sum of Mulliken atomic charges =   0.00000

 Dipole moment (field-independent basis, Debye):
    X=              0.6051    Y=             -2.3543    Z=             -3.0476  Tot=              3.8983
 Quadrupole moment (field-independent basis, Debye-Ang):
   XX=            -41.8229   YY=            -44.6957   ZZ=            -46.0954
   XY=              1.6205   XZ=              5.2319   YZ=             -1.3141

 Normal termination of Gaussian 09 at Sat Feb 17 21:02:29 2018.
