 Gaussian 09, Revision C.01,
 Gaussian 09:  AM64L-G09RevC.01 23-Sep-2011

 ---------------------------------------------------------
 #B3LYP/6-31G* Integral=(Grid=UltraFine) freq Opt pop=none
 ---------------------------------------------------------

 99/9=1/99;
 -----------------------------
 Optimization for frag39-conf2
 -----------------------------
 Charge =  0 Multiplicity = 1

 SCF Done:  E(RB3LYP) =  -327.151445263     A.U. after   14 cycles
 SCF Done:  E(RB3LYP) =  -327.153163123     A.U. after   12 cycles
 SCF Done:  E(RB3LYP) =  -327.153317729     A.U. after   11 cycles
 SCF Done:  E(RB3LYP) =  -327.153346879     A.U. after   12 cycles
 SCF Done:  E(RB3LYP) =  -327.153399872     A.U. after   11 cycles
 SCF Done:  E(RB3LYP) =  -327.153450131     A.U. after   11 cycles
 SCF Done:  E(RB3LYP) =  -327.153538083     A.U. after   14 cycles
 SCF Done:  E(RB3LYP) =  -327.153566508     A.U. after   11 cycles
 SCF Done:  E(RB3LYP) =  -327.153584301     A.U. after   10 cycles
 SCF Done:  E(RB3LYP) =  -327.153612401     A.U. after   11 cycles
 SCF Done:  E(RB3LYP) =  -327.153656713     A.U. after   12 cycles
 SCF Done:  E(RB3LYP) =  -327.153668053     A.U. after   11 cycles
 SCF Done:  E(RB3LYP) =  -327.153670888     A.U. after   10 cycles
 SCF Done:  E(RB3LYP) =  -327.153674568     A.U. after   10 cycles
 SCF Done:  E(RB3LYP) =  -327.153678736     A.U. after   10 cycles
 SCF Done:  E(RB3LYP) =  -327.153679325     A.U. after    8 cycles
 SCF Done:  E(RB3LYP) =  -327.153679364     A.U. after    7 cycles
 SCF Done:  E(RB3LYP) =  -327.153679371     A.U. after    7 cycles
 Optimization completed.
    -- Stationary point found.
 Normal termination of Gaussian 09 at Fri Feb 16 20:40:09 2018.

 --------------------------------------------------------------------
 #N Geom=AllCheck Guess=TCheck SCRF=Check GenChk RB3LYP/6-31G(d) Freq
 --------------------------------------------------------------------

 Structure from the checkpoint file:  frag39-conf2.chk
 -----------------------------
 Optimization for frag39-conf2
 -----------------------------
 Charge =  0 Multiplicity = 1

                         Standard orientation:
 ---------------------------------------------------------------------
 Center     Atomic      Atomic             Coordinates (Angstroms)
 Number     Number       Type             X           Y           Z
 ---------------------------------------------------------------------
      1          6           0       -1.324626    0.054417    0.161105
      2          6           0       -2.528851    0.071583   -0.771664
      3          6           0        2.094848    1.142110   -0.429768
      4          6           0        2.161388   -0.365541   -0.171821
      5          6           0        0.926109   -0.925899    0.549165
      6          7           0       -0.308237   -0.784459   -0.211379
      7          8           0       -1.285747    0.743581    1.172991
      8          1           0       -2.430511   -0.588379   -1.639822
      9          1           0       -3.417486   -0.220378   -0.203575
     10          1           0       -2.688954    1.096195   -1.120989
     11          1           0        1.240444    1.397655   -1.065705
     12          1           0        1.984110    1.698228    0.507924
     13          1           0        3.003257    1.495926   -0.930053
     14          1           0        3.041174   -0.601869    0.442210
     15          1           0        2.302404   -0.901404   -1.122180
     16          1           0        1.081904   -1.987393    0.783990
     17          1           0        0.758274   -0.396088    1.490435
     18          1           0       -0.404186   -1.309939   -1.068608
 ---------------------------------------------------------------------

 SCF Done:  E(RB3LYP) =  -327.153679371     A.U. after    1 cycles

 Isotropic polarizability for W=    0.000000       62.33 Bohr**3.
 End of Minotr Frequency-dependent properties file   721 does not exist.

                     1                      2                      3
                     A                      A                      A
 Frequencies --    32.7319                51.2475                79.2812
 Red. masses --     3.4346                 1.3116                 2.0783
 Frc consts  --     0.0022                 0.0020                 0.0077
 IR Inten    --     3.7361                 5.3574                 2.2045

                     4                      5                      6
                     A                      A                      A
 Frequencies --   125.7551               232.9799               258.1964
 Red. masses --     1.6976                 1.3496                 3.3451
 Frc consts  --     0.0158                 0.0432                 0.1314
 IR Inten    --     3.1002                 2.0562                 3.8419

                     7                      8                      9
                     A                      A                      A
 Frequencies --   333.3101               401.1252               436.0342
 Red. masses --     2.1113                 2.7161                 1.2496
 Frc consts  --     0.1382                 0.2575                 0.1400
 IR Inten    --     3.0020                 4.7571                86.4754

                    10                     11                     12
                     A                      A                      A
 Frequencies --   499.3604               609.5648               633.8172
 Red. masses --     2.1278                 3.7420                 2.2718
 Frc consts  --     0.3126                 0.8192                 0.5377
 IR Inten    --    16.4064                 4.6337                 1.0246

                    13                     14                     15
                     A                      A                      A
 Frequencies --   789.5686               844.0686               887.4229
 Red. masses --     1.2693                 2.2824                 2.3001
 Frc consts  --     0.4662                 0.9581                 1.0672
 IR Inten    --     3.9022                 3.0218                 1.7775

                    16                     17                     18
                     A                      A                      A
 Frequencies --   951.6382               997.3777              1036.2986
 Red. masses --     1.6536                 1.9576                 1.5857
 Frc consts  --     0.8823                 1.1474                 1.0033
 IR Inten    --     1.5658                 3.1442                 6.0243

                    19                     20                     21
                     A                      A                      A
 Frequencies --  1066.1567              1102.6639              1138.3397
 Red. masses --     1.6989                 2.4949                 2.1404
 Frc consts  --     1.1378                 1.7873                 1.6341
 IR Inten    --    10.1077                 8.8380                 1.2738

                    22                     23                     24
                     A                      A                      A
 Frequencies --  1183.0327              1269.7569              1304.2213
 Red. masses --     2.0478                 1.6636                 1.4267
 Frc consts  --     1.6886                 1.5803                 1.4299
 IR Inten    --    15.4288                58.1625                97.0267

                    25                     26                     27
                     A                      A                      A
 Frequencies --  1320.3516              1399.1057              1409.4778
 Red. masses --     1.1671                 1.3718                 1.3101
 Frc consts  --     1.1988                 1.5821                 1.5335
 IR Inten    --     0.6967                10.3848                 3.8920

                    28                     29                     30
                     A                      A                      A
 Frequencies --  1426.5868              1445.8671              1501.2560
 Red. masses --     1.2654                 1.2696                 1.0459
 Frc consts  --     1.5173                 1.5638                 1.3888
 IR Inten    --    22.7799                 5.0566                 5.8898

                    31                     32                     33
                     A                      A                      A
 Frequencies --  1509.7258              1512.7293              1517.5949
 Red. masses --     1.0912                 1.0718                 1.0707
 Frc consts  --     1.4654                 1.4451                 1.4529
 IR Inten    --    23.5949                 4.0937                 9.8897

                    34                     35                     36
                     A                      A                      A
 Frequencies --  1528.7031              1535.8220              1565.5361
 Red. masses --     1.0529                 1.0649                 1.8623
 Frc consts  --     1.4497                 1.4799                 2.6893
 IR Inten    --     8.7446                11.5709               184.0489

                    37                     38                     39
                     A                      A                      A
 Frequencies --  1787.0444              3022.3458              3042.0393
 Red. masses --     9.0012                 1.0642                 1.0716
 Frc consts  --    16.9363                 5.7276                 5.8429
 IR Inten    --   221.9802                28.0132                59.6995

                    40                     41                     42
                     A                      A                      A
 Frequencies --  3053.1736              3061.7017              3062.2869
 Red. masses --     1.0361                 1.0968                 1.0362
 Frc consts  --     5.6907                 6.0578                 5.7251
 IR Inten    --    20.8929                37.5556                 8.6281

                    43                     44                     45
                     A                      A                      A
 Frequencies --  3119.1272              3123.5526              3134.5651
 Red. masses --     1.1026                 1.1023                 1.0949
 Frc consts  --     6.3205                 6.3363                 6.3382
 IR Inten    --    36.6725                32.4802                 4.9755

                    46                     47                     48
                     A                      A                      A
 Frequencies --  3136.9910              3140.9235              3623.2766
 Red. masses --     1.1026                 1.1011                 1.0773
 Frc consts  --     6.3927                 6.4002                 8.3325
 IR Inten    --    26.2988                 6.7857                13.4264

 - Thermochemistry -
 -------------------
 Temperature   298.150 Kelvin.  Pressure   1.00000 Atm.
 Atom     1 has atomic number  6 and mass  12.00000

 Molecular mass:   101.08406 amu.
 Principal axes and moments of inertia in atomic units:
                           1         2         3
     Eigenvalues --   387.938011243.409321292.54503
           X            0.99968   0.01585   0.01975
           Y           -0.01255   0.98742  -0.15761
           Z           -0.02200   0.15731   0.98730
 This molecule is an asymmetric top.
 Rotational symmetry number  1.
 Rotational temperatures (Kelvin)      0.22327     0.06966     0.06701
 Rotational constants (GHZ):           4.65214     1.45145     1.39627
 Zero-point vibrational energy     420150.8 (Joules/Mol)
                                  100.41846 (Kcal/Mol)
 Warning -- explicit consideration of  11 degrees of freedom as
           vibrations may cause significant error
 Vibrational temperatures:     47.09    73.73   114.07   180.93   335.21
          (Kelvin)            371.49   479.56   577.13   627.36   718.47
                              877.03   911.92  1136.01  1214.42  1276.80
                             1369.19  1435.00  1491.00  1533.96  1586.49
                             1637.81  1702.12  1826.89  1876.48  1899.69
                             2013.00  2027.92  2052.54  2080.28  2159.97
                             2172.16  2176.48  2183.48  2199.46  2209.70
                             2252.45  2571.16  4348.48  4376.81  4392.83
                             4405.10  4405.94  4487.72  4494.09  4509.93
                             4513.42  4519.08  5213.08

 Zero-point correction=                           0.160027 (Hartree/Particle)
 Thermal correction to Energy=                    0.169002
 Thermal correction to Enthalpy=                  0.169946
 Thermal correction to Gibbs Free Energy=         0.125111
 Sum of electronic and zero-point Energies=           -326.993652
 Sum of electronic and thermal Energies=              -326.984678
 Sum of electronic and thermal Enthalpies=            -326.983734
 Sum of electronic and thermal Free Energies=         -327.028568

                     E (Thermal)             CV                S
                      KCal/Mol        Cal/Mol-Kelvin    Cal/Mol-Kelvin
 Total                  106.050             30.370             94.362
 Electronic               0.000              0.000              0.000
 Translational            0.889              2.981             39.750
 Rotational               0.889              2.981             27.924
 Vibrational            104.273             24.408             26.687
 Vibration     1          0.594              1.983              5.657
 Vibration     2          0.596              1.977              4.769
 Vibration     3          0.600              1.963              3.909
 Vibration     4          0.611              1.927              3.010
 Vibration     5          0.654              1.790              1.856
 Vibration     6          0.667              1.749              1.674
 Vibration     7          0.715              1.609              1.244
 Vibration     8          0.767              1.468              0.959
 Vibration     9          0.796              1.392              0.839
 Vibration    10          0.855              1.251              0.660
 Vibration    11          0.969              1.012              0.433

 Optimization completed.
    -- Stationary point found.
 Normal termination of Gaussian 09 at Fri Feb 16 20:47:39 2018.
