 Gaussian 09, Revision C.01,
 Gaussian 09:  AM64L-G09RevC.01 23-Sep-2011

 ----------------------------------------------------------------------
 #HF/6-31G* Geom=AllCheck Guess=Read Pop=(MK,ReadRadii) Integral=(Grid=
 UltraFine) iop(6/33=2)
 ----------------------------------------------------------------------

 Structure from the checkpoint file:  frag35-conf0.chk
 -----------------------------
 Optimization for frag35-conf0
 -----------------------------
 Charge =  0 Multiplicity = 1

                         Standard orientation:
 ---------------------------------------------------------------------
 Center     Atomic      Atomic             Coordinates (Angstroms)
 Number     Number       Type             X           Y           Z
 ---------------------------------------------------------------------
      1          6           0        2.352613   -1.171399    0.155409
      2          6           0        0.261953    1.022397   -0.639459
      3          6           0        4.816267   -1.042898   -0.011508
      4          6           0        0.829904    3.338304   -0.233472
      5          6           0        0.635379    1.792411    1.705430
      6          6           0       -3.185915   -1.947883    0.867378
      7          6           0        1.056157   -1.369601   -0.627514
      8          6           0       -0.050574   -0.411720   -0.151642
      9          7           0        3.491279   -1.185104   -0.590299
     10          7           0       -1.322727   -0.842059   -0.766062
     11          7           0        0.644734    1.973000    0.250103
     12          8           0        2.350133   -1.040236    1.378474
     13          8           0        0.159630    1.223738   -1.854487
     14          8           0       -3.750004   -0.159158   -1.017045
     15          8           0       -2.487681    0.589172    1.076804
     16         16           0       -2.760018   -0.409369    0.032798
     17          1           0        5.448513   -1.901993   -0.263033
     18          1           0        4.695147   -0.989870    1.071039
     19          1           0        5.305779   -0.127275   -0.363532
     20          1           0        0.031489    3.990552    0.143367
     21          1           0        0.801681    3.328977   -1.321836
     22          1           0        1.793931    3.729787    0.111108
     23          1           0        1.114754    0.852750    1.984473
     24          1           0       -0.385426    1.829147    2.102233
     25          1           0        1.217174    2.605528    2.147244
     26          1           0       -4.105795   -1.763654    1.427013
     27          1           0       -3.338417   -2.722511    0.115048
     28          1           0       -2.377961   -2.218841    1.549969
     29          1           0        0.714687   -2.396772   -0.454732
     30          1           0        1.200129   -1.241475   -1.705822
     31          1           0       -0.142210   -0.489812    0.929547
     32          1           0        3.406919   -1.255328   -1.594113
     33          1           0       -1.384435   -0.465963   -1.716641
 ---------------------------------------------------------------------

 SCF Done:  E(RHF) =  -1173.09412219     A.U. after   13 cycles

 The electronic state is 1-A.
 Alpha  occ. eigenvalues --  -92.21313 -20.56177 -20.55884 -20.53873 -20.52883
 Alpha  occ. eigenvalues --  -15.61138 -15.60692 -15.59850 -11.37081 -11.35896
 Alpha  occ. eigenvalues --  -11.30292 -11.28024 -11.27136 -11.26270 -11.25513
 Alpha  occ. eigenvalues --  -11.25460  -9.18471  -6.87048  -6.87042  -6.86941
 Alpha  occ. eigenvalues --   -1.45512  -1.39002  -1.38149  -1.33758  -1.24374
 Alpha  occ. eigenvalues --   -1.24147  -1.23897  -1.07421  -1.03482  -0.98176
 Alpha  occ. eigenvalues --   -0.96341  -0.94296  -0.89017  -0.83282  -0.79993
 Alpha  occ. eigenvalues --   -0.75599  -0.73469  -0.70858  -0.68735  -0.67323
 Alpha  occ. eigenvalues --   -0.67188  -0.65893  -0.65428  -0.64603  -0.63478
 Alpha  occ. eigenvalues --   -0.61792  -0.60910  -0.60251  -0.59827  -0.57890
 Alpha  occ. eigenvalues --   -0.57595  -0.56074  -0.55679  -0.55551  -0.54543
 Alpha  occ. eigenvalues --   -0.52912  -0.52378  -0.51445  -0.50445  -0.49119
 Alpha  occ. eigenvalues --   -0.46901  -0.45952  -0.45152  -0.42940  -0.41441
 Alpha  occ. eigenvalues --   -0.40098  -0.37032
 Alpha virt. eigenvalues --    0.16671   0.18134   0.20778   0.21349   0.23632
 Alpha virt. eigenvalues --    0.24326   0.25709   0.25887   0.26782   0.27423
 Alpha virt. eigenvalues --    0.27949   0.28208   0.29235   0.30112   0.30588

 Mulliken atomic charges:
              1
     1  C    0.783173
     2  C    0.798505
     3  C   -0.291562
     4  C   -0.298885
     5  C   -0.333905
     6  C   -0.700160
     7  C   -0.418771
     8  C   -0.081958
     9  N   -0.793104
    10  N   -0.890107
    11  N   -0.658462
    12  O   -0.645831
    13  O   -0.671318
    14  O   -0.679565
    15  O   -0.705152
    16  S    1.603380
    17  H    0.174213
    18  H    0.231380
    19  H    0.175875
    20  H    0.177027
    21  H    0.232930
    22  H    0.166776
    23  H    0.234280
    24  H    0.211688
    25  H    0.177519
    26  H    0.234037
    27  H    0.231184
    28  H    0.220631
    29  H    0.225773
    30  H    0.208769
    31  H    0.253158
    32  H    0.393829
    33  H    0.434651
 Sum of Mulliken atomic charges =   0.00000

 Dipole moment (field-independent basis, Debye):
    X=              4.3999    Y=             -3.0790    Z=              0.6094  Tot=              5.4047
 Quadrupole moment (field-independent basis, Debye-Ang):
   XX=           -101.4932   YY=            -93.3550   ZZ=           -110.3362
   XY=              9.4755   XZ=            -14.0047   YZ=              5.7662

 Normal termination of Gaussian 09 at Sat Feb 17 21:04:37 2018.
