 Gaussian 09, Revision C.01,
 Gaussian 09:  AM64L-G09RevC.01 23-Sep-2011

 ---------------------------------------------------------
 #B3LYP/6-31G* Integral=(Grid=UltraFine) freq Opt pop=none
 ---------------------------------------------------------

 99/9=1/99;
 -----------------------------
 Optimization for frag35-conf0
 -----------------------------
 Charge =  0 Multiplicity = 1

 SCF Done:  E(RB3LYP) =  -1178.37433136     A.U. after   15 cycles
 SCF Done:  E(RB3LYP) =  -1178.38180541     A.U. after   13 cycles
 SCF Done:  E(RB3LYP) =  -1178.38270955     A.U. after   13 cycles
 SCF Done:  E(RB3LYP) =  -1178.38336391     A.U. after   13 cycles
 SCF Done:  E(RB3LYP) =  -1178.38368995     A.U. after   12 cycles
 SCF Done:  E(RB3LYP) =  -1178.38381199     A.U. after   13 cycles
 SCF Done:  E(RB3LYP) =  -1178.38437147     A.U. after   13 cycles
 SCF Done:  E(RB3LYP) =  -1178.38492867     A.U. after   12 cycles
 SCF Done:  E(RB3LYP) =  -1178.38558735     A.U. after   15 cycles
 SCF Done:  E(RB3LYP) =  -1178.38750516     A.U. after   12 cycles
 SCF Done:  E(RB3LYP) =  -1178.39040469     A.U. after   11 cycles
 SCF Done:  E(RB3LYP) =  -1178.39042940     A.U. after   10 cycles
 SCF Done:  E(RB3LYP) =  -1178.39043838     A.U. after   10 cycles
 SCF Done:  E(RB3LYP) =  -1178.39044200     A.U. after    9 cycles
 SCF Done:  E(RB3LYP) =  -1178.39044474     A.U. after    9 cycles
 SCF Done:  E(RB3LYP) =  -1178.39044658     A.U. after    9 cycles
 SCF Done:  E(RB3LYP) =  -1178.39044694     A.U. after    8 cycles
 SCF Done:  E(RB3LYP) =  -1178.39044704     A.U. after    8 cycles
 SCF Done:  E(RB3LYP) =  -1178.39044707     A.U. after    8 cycles
 Optimization completed.
    -- Stationary point found.
 Normal termination of Gaussian 09 at Fri Feb 16 22:33:07 2018.

 --------------------------------------------------------------------
 #N Geom=AllCheck Guess=TCheck SCRF=Check GenChk RB3LYP/6-31G(d) Freq
 --------------------------------------------------------------------

 Structure from the checkpoint file:  frag35-conf0.chk
 -----------------------------
 Optimization for frag35-conf0
 -----------------------------
 Charge =  0 Multiplicity = 1

                         Standard orientation:
 ---------------------------------------------------------------------
 Center     Atomic      Atomic             Coordinates (Angstroms)
 Number     Number       Type             X           Y           Z
 ---------------------------------------------------------------------
      1          6           0        2.352613   -1.171399    0.155409
      2          6           0        0.261953    1.022397   -0.639459
      3          6           0        4.816267   -1.042898   -0.011508
      4          6           0        0.829904    3.338304   -0.233472
      5          6           0        0.635379    1.792411    1.705430
      6          6           0       -3.185915   -1.947883    0.867378
      7          6           0        1.056157   -1.369601   -0.627514
      8          6           0       -0.050574   -0.411720   -0.151642
      9          7           0        3.491279   -1.185104   -0.590299
     10          7           0       -1.322727   -0.842059   -0.766062
     11          7           0        0.644734    1.973000    0.250103
     12          8           0        2.350133   -1.040236    1.378474
     13          8           0        0.159630    1.223738   -1.854487
     14          8           0       -3.750004   -0.159158   -1.017045
     15          8           0       -2.487681    0.589172    1.076804
     16         16           0       -2.760018   -0.409369    0.032798
     17          1           0        5.448513   -1.901993   -0.263033
     18          1           0        4.695147   -0.989870    1.071039
     19          1           0        5.305779   -0.127275   -0.363532
     20          1           0        0.031489    3.990552    0.143367
     21          1           0        0.801681    3.328977   -1.321836
     22          1           0        1.793931    3.729787    0.111108
     23          1           0        1.114754    0.852750    1.984473
     24          1           0       -0.385426    1.829147    2.102233
     25          1           0        1.217174    2.605528    2.147244
     26          1           0       -4.105795   -1.763654    1.427013
     27          1           0       -3.338417   -2.722511    0.115048
     28          1           0       -2.377961   -2.218841    1.549969
     29          1           0        0.714687   -2.396772   -0.454732
     30          1           0        1.200129   -1.241475   -1.705822
     31          1           0       -0.142210   -0.489812    0.929547
     32          1           0        3.406919   -1.255328   -1.594113
     33          1           0       -1.384435   -0.465963   -1.716641
 ---------------------------------------------------------------------

 SCF Done:  E(RB3LYP) =  -1178.39044707     A.U. after    1 cycles

 Isotropic polarizability for W=    0.000000      131.30 Bohr**3.
 End of Minotr Frequency-dependent properties file   721 does not exist.

                     1                      2                      3
                     A                      A                      A
 Frequencies --    23.0317                24.2704                39.2251
 Red. masses --     4.5308                 4.4838                 4.6018
 Frc consts  --     0.0014                 0.0016                 0.0042
 IR Inten    --     2.7039                 3.9237                 6.2104

                     4                      5                      6
                     A                      A                      A
 Frequencies --    51.3503                65.6938                74.1490
 Red. masses --     4.3040                 3.7360                 1.2298
 Frc consts  --     0.0067                 0.0095                 0.0040
 IR Inten    --     0.3668                 4.8376                 0.1846

                     7                      8                      9
                     A                      A                      A
 Frequencies --    93.8246               109.6672               129.6933
 Red. masses --     3.2311                 2.6489                 1.2446
 Frc consts  --     0.0168                 0.0188                 0.0123
 IR Inten    --     3.1976                 4.1808                 0.5437

                    10                     11                     12
                     A                      A                      A
 Frequencies --   149.1559               161.0990               166.4036
 Red. masses --     1.5123                 3.5964                 3.4308
 Frc consts  --     0.0198                 0.0550                 0.0560
 IR Inten    --     0.6155                 0.8657                 6.1663

                    13                     14                     15
                     A                      A                      A
 Frequencies --   212.5549               217.2378               220.2156
 Red. masses --     3.8202                 4.5869                 1.1221
 Frc consts  --     0.1017                 0.1275                 0.0321
 IR Inten    --    10.4922                 0.6770                 0.7693

                    16                     17                     18
                     A                      A                      A
 Frequencies --   242.7830               260.6549               288.8650
 Red. masses --     3.2303                 3.7537                 2.7959
 Frc consts  --     0.1122                 0.1503                 0.1375
 IR Inten    --     2.2674                 6.3007                 3.7535

                    19                     20                     21
                     A                      A                      A
 Frequencies --   318.7113               339.2965               358.6479
 Red. masses --     3.4361                 3.7769                 3.6336
 Frc consts  --     0.2056                 0.2562                 0.2754
 IR Inten    --     0.6560                39.0911                16.8128

                    22                     23                     24
                     A                      A                      A
 Frequencies --   389.4189               432.1806               449.7092
 Red. masses --     4.2750                 2.9748                 2.8917
 Frc consts  --     0.3820                 0.3274                 0.3446
 IR Inten    --    30.4127                 3.2890                35.4095

                    25                     26                     27
                     A                      A                      A
 Frequencies --   473.8983               480.6826               507.3220
 Red. masses --     5.3809                 2.0826                 3.1247
 Frc consts  --     0.7120                 0.2835                 0.4738
 IR Inten    --    15.7458                70.9005                38.5563

                    28                     29                     30
                     A                      A                      A
 Frequencies --   526.5632               614.3236               630.9007
 Red. masses --     3.6013                 3.5133                 3.1878
 Frc consts  --     0.5883                 0.7812                 0.7476
 IR Inten    --     2.4298                 1.2785                 6.1651

                    31                     32                     33
                     A                      A                      A
 Frequencies --   682.5400               730.0023               741.4893
 Red. masses --     3.4924                 3.8769                 4.2630
 Frc consts  --     0.9586                 1.2173                 1.3809
 IR Inten    --    81.2078                37.4843                21.3374

                    34                     35                     36
                     A                      A                      A
 Frequencies --   761.6116               785.6552               907.9647
 Red. masses --     3.1139                 4.2903                 2.7097
 Frc consts  --     1.0642                 1.5603                 1.3161
 IR Inten    --    24.8247                23.5906                31.3239

                    37                     38                     39
                     A                      A                      A
 Frequencies --   933.6326               954.1180               995.3181
 Red. masses --     2.9146                 3.4416                 1.3521
 Frc consts  --     1.4969                 1.8459                 0.7892
 IR Inten    --   130.1639                13.5537                 2.4159

                    40                     41                     42
                     A                      A                      A
 Frequencies --  1000.6175              1019.6813              1051.7018
 Red. masses --     1.4369                 2.2052                 3.7218
 Frc consts  --     0.8476                 1.3509                 2.4254
 IR Inten    --    45.4317                54.2823                 3.0540

                    43                     44                     45
                     A                      A                      A
 Frequencies --  1089.9121              1092.3469              1116.4834
 Red. masses --     3.5373                 1.5363                 3.3303
 Frc consts  --     2.4757                 1.0800                 2.4459
 IR Inten    --    70.9065                13.6735                 8.5420

                    46                     47                     48
                     A                      A                      A
 Frequencies --  1127.3693              1140.1687              1160.2635
 Red. masses --     8.9132                 1.2282                 1.2834
 Frc consts  --     6.6745                 0.9407                 1.0180
 IR Inten    --   117.3246                 3.9189                 3.9117

                    49                     50                     51
                     A                      A                      A
 Frequencies --  1169.2606              1180.8926              1185.2834
 Red. masses --     1.4595                 1.7361                 1.3727
 Frc consts  --     1.1757                 1.4265                 1.1363
 IR Inten    --    46.5024                54.1570                 3.1935

                    52                     53                     54
                     A                      A                      A
 Frequencies --  1206.5231              1266.2743              1287.3893
 Red. masses --     1.5275                 1.5751                 4.3475
 Frc consts  --     1.3101                 1.4880                 4.2453
 IR Inten    --    54.0305                41.0981                31.5610

                    55                     56                     57
                     A                      A                      A
 Frequencies --  1302.1327              1317.5710              1346.6696
 Red. masses --     1.6276                 2.0099                 2.1823
 Frc consts  --     1.6259                 2.0557                 2.3317
 IR Inten    --    43.7129                72.1312               101.0308

                    58                     59                     60
                     A                      A                      A
 Frequencies --  1381.7432              1396.6305              1434.1123
 Red. masses --     1.2238                 1.4688                 1.7819
 Frc consts  --     1.3766                 1.6880                 2.1592
 IR Inten    --    13.6160                12.6519               137.2787

                    61                     62                     63
                     A                      A                      A
 Frequencies --  1453.4211              1459.6705              1478.0272
 Red. masses --     1.1590                 1.1778                 1.4244
 Frc consts  --     1.4425                 1.4785                 1.8334
 IR Inten    --     9.9468                16.9170                25.6121

                    64                     65                     66
                     A                      A                      A
 Frequencies --  1485.0762              1487.5542              1495.5306
 Red. masses --     1.0500                 1.0988                 1.1352
 Frc consts  --     1.3644                 1.4326                 1.4959
 IR Inten    --     5.5334                 0.7153                 8.5121

                    67                     68                     69
                     A                      A                      A
 Frequencies --  1501.9934              1520.8993              1528.6512
 Red. masses --     1.2185                 1.1753                 1.0512
 Frc consts  --     1.6196                 1.6018                 1.4472
 IR Inten    --    34.9269                61.4153                10.3456

                    70                     71                     72
                     A                      A                      A
 Frequencies --  1529.6227              1530.7857              1549.1299
 Red. masses --     1.0468                 1.0762                 1.1022
 Frc consts  --     1.4430                 1.4859                 1.5584
 IR Inten    --     6.1173                 8.8723                 5.5285

                    73                     74                     75
                     A                      A                      A
 Frequencies --  1561.8085              1588.9589              1735.5530
 Red. masses --     1.1949                 1.7329                 8.2420
 Frc consts  --     1.7173                 2.5778                14.6271
 IR Inten    --    44.8663               167.6162               200.9687

                    76                     77                     78
                     A                      A                      A
 Frequencies --  1767.0852              3042.6429              3051.2316
 Red. masses --     8.5230                 1.0393                 1.0368
 Frc consts  --    15.6803                 5.6688                 5.6871
 IR Inten    --   262.8579                41.9955                59.5992

                    79                     80                     81
                     A                      A                      A
 Frequencies --  3063.0787              3066.0017              3087.2992
 Red. masses --     1.0365                 1.0589                 1.0296
 Frc consts  --     5.7297                 5.8648                 5.7818
 IR Inten    --    38.1167                 8.7293                 0.4158

                    82                     83                     84
                     A                      A                      A
 Frequencies --  3096.8617              3104.6373              3112.0958
 Red. masses --     1.1036                 1.1060                 1.1043
 Frc consts  --     6.2361                 6.2810                 6.3016
 IR Inten    --    30.3392                29.8475                 7.6252

                    85                     86                     87
                     A                      A                      A
 Frequencies --  3134.3938              3164.2478              3178.1514
 Red. masses --     1.1029                 1.1022                 1.0879
 Frc consts  --     6.3842                 6.5019                 6.4745
 IR Inten    --    16.1680                 1.3455                 2.5055

                    88                     89                     90
                     A                      A                      A
 Frequencies --  3179.2615              3183.8948              3195.2867
 Red. masses --     1.0981                 1.1065                 1.0972
 Frc consts  --     6.5397                 6.6086                 6.6001
 IR Inten    --     1.3098                 1.2933                 1.2885

                    91                     92                     93
                     A                      A                      A
 Frequencies --  3198.2757              3458.4843              3631.5524
 Red. masses --     1.1079                 1.0734                 1.0776
 Frc consts  --     6.6769                 7.5642                 8.3735
 IR Inten    --     0.5707                55.5365                25.2358

 - Thermochemistry -
 -------------------
 Temperature   298.150 Kelvin.  Pressure   1.00000 Atm.
 Atom     1 has atomic number  6 and mass  12.00000

 Molecular mass:   251.09398 amu.
 Principal axes and moments of inertia in atomic units:
                           1         2         3
     Eigenvalues --  2578.770836094.724187107.63359
           X            0.99989   0.01245  -0.00793
           Y           -0.01227   0.99968   0.02233
           Z            0.00821  -0.02223   0.99972
 This molecule is an asymmetric top.
 Rotational symmetry number  1.
 Warning -- assumption of classical behavior for rotation
           may cause significant error
 Rotational temperatures (Kelvin)      0.03359     0.01421     0.01219
 Rotational constants (GHZ):           0.69985     0.29612     0.25392
 Zero-point vibrational energy     714398.2 (Joules/Mol)
                                  170.74527 (Kcal/Mol)
 Warning -- explicit consideration of  29 degrees of freedom as
           vibrations may cause significant error
 Vibrational temperatures:     33.14    34.92    56.44    73.88    94.52
          (Kelvin)            106.68   134.99   157.79   186.60   214.60
                              231.79   239.42   305.82   312.56   316.84
                              349.31   375.02   415.61   458.55   488.17
                              516.01   560.29   621.81   647.03   681.83
                              691.59   729.92   757.61   883.87   907.72
                              982.02  1050.31  1066.84  1095.79  1130.38
                             1306.36  1343.29  1372.76  1432.04  1439.66
                             1467.09  1513.16  1568.14  1571.64  1606.37
                             1622.03  1640.45  1669.36  1682.30  1699.04
                             1705.36  1735.92  1821.88  1852.26  1873.48
                             1895.69  1937.55  1988.02  2009.44  2063.37
                             2091.15  2100.14  2126.55  2136.69  2140.26
                             2151.73  2161.03  2188.23  2199.39  2200.78
                             2202.46  2228.85  2247.09  2286.15  2497.07
                             2542.44  4377.68  4390.04  4407.08  4411.29
                             4441.93  4455.69  4466.87  4477.61  4509.69
                             4552.64  4572.65  4574.24  4580.91  4597.30
                             4601.60  4975.98  5224.99

 Zero-point correction=                           0.272100 (Hartree/Particle)
 Thermal correction to Energy=                    0.291345
 Thermal correction to Enthalpy=                  0.292289
 Thermal correction to Gibbs Free Energy=         0.222145
 Sum of electronic and zero-point Energies=          -1178.118347
 Sum of electronic and thermal Energies=             -1178.099102
 Sum of electronic and thermal Enthalpies=           -1178.098158
 Sum of electronic and thermal Free Energies=        -1178.168302

                     E (Thermal)             CV                S
                      KCal/Mol        Cal/Mol-Kelvin    Cal/Mol-Kelvin
 Total                  182.822             67.177            147.631
 Electronic               0.000              0.000              0.000
 Translational            0.889              2.981             42.462
 Rotational               0.889              2.981             33.079
 Vibrational            181.044             61.216             72.089
 Vibration     1          0.593              1.985              6.354
 Vibration     2          0.593              1.985              6.250
 Vibration     3          0.594              1.981              5.298
 Vibration     4          0.596              1.977              4.765
 Vibration     5          0.597              1.971              4.278
 Vibration     6          0.599              1.966              4.040
 Vibration     7          0.603              1.954              3.579
 Vibration     8          0.606              1.941              3.275
 Vibration     9          0.612              1.924              2.951
 Vibration    10          0.618              1.904              2.683
 Vibration    11          0.622              1.890              2.537
 Vibration    12          0.624              1.884              2.476
 Vibration    13          0.644              1.822              2.022
 Vibration    14          0.646              1.815              1.982
 Vibration    15          0.647              1.810              1.957
 Vibration    16          0.659              1.775              1.782
 Vibration    17          0.669              1.745              1.657
 Vibration    18          0.685              1.694              1.481
 Vibration    19          0.705              1.638              1.317
 Vibration    20          0.719              1.597              1.215
 Vibration    21          0.733              1.557              1.128
 Vibration    22          0.757              1.493              1.002
 Vibration    23          0.793              1.400              0.852
 Vibration    24          0.809              1.362              0.797
 Vibration    25          0.831              1.308              0.727
 Vibration    26          0.837              1.293              0.708
 Vibration    27          0.863              1.234              0.640
 Vibration    28          0.882              1.191              0.595
 Vibration    29          0.974              1.002              0.426

 Normal termination of Gaussian 09 at Fri Feb 16 23:18:16 2018.
