 Gaussian 09, Revision C.01,
 Gaussian 09:  AM64L-G09RevC.01 23-Sep-2011

 ----------------------------------------------------------------------
 #HF/6-31G* Geom=AllCheck Guess=Read Pop=(MK,ReadRadii) Integral=(Grid=
 UltraFine) iop(6/33=2)
 ----------------------------------------------------------------------

 Structure from the checkpoint file:  frag53-conf1.chk
 -----------------------------
 Optimization for frag53-conf1
 -----------------------------
 Charge =  0 Multiplicity = 1

                         Standard orientation:
 ---------------------------------------------------------------------
 Center     Atomic      Atomic             Coordinates (Angstroms)
 Number     Number       Type             X           Y           Z
 ---------------------------------------------------------------------
      1          6           0       -0.587627    0.732593   -0.585427
      2          6           0       -1.848800    1.225234   -0.300501
      3          6           0       -1.364631   -1.426423    0.054755
      4          6           0       -0.315248   -0.636330   -0.410036
      5          6           0       -2.834147    0.328842    0.168762
      6          6           0        2.881859    0.267917    0.060004
      7          6           0        3.848070    0.589273    1.191375
      8          6           0        1.050473   -1.217742   -0.700406
      9          7           0       -2.591553   -0.977040    0.347375
     10          7           0       -4.127925    0.752537    0.421725
     11          7           0        2.085087   -0.825696    0.258702
     12          8           0        2.839337    0.943467   -0.963508
     13          1           0        0.196561    1.392329   -0.947591
     14          1           0       -2.085903    2.276007   -0.444335
     15          1           0       -1.212545   -2.496504    0.205458
     16          1           0        4.860940    0.641375    0.781434
     17          1           0        3.607651    1.579351    1.592097
     18          1           0        3.831931   -0.138696    2.008650
     19          1           0        0.996614   -2.312163   -0.713484
     20          1           0        1.411025   -0.886987   -1.677795
     21          1           0       -4.249259    1.718817    0.692707
     22          1           0       -4.671120    0.095953    0.967996
     23          1           0        2.060449   -1.246011    1.177159
 ---------------------------------------------------------------------

 SCF Done:  E(RHF) =  -547.582600611     A.U. after   14 cycles

 The electronic state is 1-A.
 Alpha  occ. eigenvalues --  -20.52229 -15.59097 -15.56971 -15.55170 -11.35628
 Alpha  occ. eigenvalues --  -11.31511 -11.27269 -11.27171 -11.25176 -11.24106
 Alpha  occ. eigenvalues --  -11.23061 -11.22878  -1.37365  -1.27546  -1.22845
 Alpha  occ. eigenvalues --   -1.18128  -1.08550  -1.03125  -0.99869  -0.92152
 Alpha  occ. eigenvalues --   -0.85822  -0.82068  -0.78592  -0.71407  -0.70393
 Alpha  occ. eigenvalues --   -0.68545  -0.65420  -0.64547  -0.62544  -0.61016
 Alpha  occ. eigenvalues --   -0.59399  -0.57796  -0.56410  -0.55973  -0.55093
 Alpha  occ. eigenvalues --   -0.54316  -0.53157  -0.49890  -0.45097  -0.41946
 Alpha  occ. eigenvalues --   -0.41376  -0.38810  -0.37154  -0.29934
 Alpha virt. eigenvalues --    0.12771   0.15441   0.19496   0.21531   0.23296
 Alpha virt. eigenvalues --    0.25907   0.26805   0.27803   0.30174   0.30756
 Alpha virt. eigenvalues --    0.31352   0.32906   0.33822   0.34580   0.35485

 Mulliken atomic charges:
              1
     1  C   -0.145893
     2  C   -0.295837
     3  C    0.061598
     4  C   -0.068296
     5  C    0.574715
     6  C    0.761744
     7  C   -0.575099
     8  C   -0.164831
     9  N   -0.619970
    10  N   -0.897187
    11  N   -0.788126
    12  O   -0.635659
    13  H    0.258040
    14  H    0.205985
    15  H    0.193925
    16  H    0.211053
    17  H    0.205338
    18  H    0.168222
    19  H    0.186727
    20  H    0.231869
    21  H    0.367282
    22  H    0.382602
    23  H    0.381798
 Sum of Mulliken atomic charges =   0.00000

 Dipole moment (field-independent basis, Debye):
    X=              0.2387    Y=             -0.2472    Z=              3.6819  Tot=              3.6979
 Quadrupole moment (field-independent basis, Debye-Ang):
   XX=            -69.6264   YY=            -66.2281   ZZ=            -71.4809
   XY=            -12.2005   XZ=              3.9352   YZ=              3.0990

 Normal termination of Gaussian 09 at Sat Feb 17 21:06:21 2018.
