 Gaussian 09, Revision C.01,
 Gaussian 09:  AM64L-G09RevC.01 23-Sep-2011

 ---------------------------------------------------------
 #B3LYP/6-31G* Integral=(Grid=UltraFine) freq Opt pop=none
 ---------------------------------------------------------

 99/9=1/99;
 -----------------------------
 Optimization for frag53-conf1
 -----------------------------
 Charge =  0 Multiplicity = 1

 SCF Done:  E(RB3LYP) =  -550.970558778     A.U. after   15 cycles
 SCF Done:  E(RB3LYP) =  -550.973498176     A.U. after   12 cycles
 SCF Done:  E(RB3LYP) =  -550.973882567     A.U. after   12 cycles
 SCF Done:  E(RB3LYP) =  -550.973943501     A.U. after   12 cycles
 SCF Done:  E(RB3LYP) =  -550.974054602     A.U. after   12 cycles
 SCF Done:  E(RB3LYP) =  -550.974157288     A.U. after   12 cycles
 SCF Done:  E(RB3LYP) =  -550.974366298     A.U. after   15 cycles
 SCF Done:  E(RB3LYP) =  -550.974595639     A.U. after   13 cycles
 SCF Done:  E(RB3LYP) =  -550.974967800     A.U. after   13 cycles
 SCF Done:  E(RB3LYP) =  -550.975191761     A.U. after   13 cycles
 SCF Done:  E(RB3LYP) =  -550.976238948     A.U. after   10 cycles
 SCF Done:  E(RB3LYP) =  -550.976241579     A.U. after    9 cycles
 SCF Done:  E(RB3LYP) =  -550.976242579     A.U. after    8 cycles
 SCF Done:  E(RB3LYP) =  -550.976242998     A.U. after    8 cycles
 SCF Done:  E(RB3LYP) =  -550.976243365     A.U. after    8 cycles
 SCF Done:  E(RB3LYP) =  -550.976243955     A.U. after    9 cycles
 SCF Done:  E(RB3LYP) =  -550.976244695     A.U. after    9 cycles
 SCF Done:  E(RB3LYP) =  -550.976245268     A.U. after    9 cycles
 SCF Done:  E(RB3LYP) =  -550.976245489     A.U. after    8 cycles
 Optimization completed.
    -- Stationary point found.
 Normal termination of Gaussian 09 at Fri Feb 16 22:11:11 2018.

 --------------------------------------------------------------------
 #N Geom=AllCheck Guess=TCheck SCRF=Check GenChk RB3LYP/6-31G(d) Freq
 --------------------------------------------------------------------

 Structure from the checkpoint file:  frag53-conf1.chk
 -----------------------------
 Optimization for frag53-conf1
 -----------------------------
 Charge =  0 Multiplicity = 1

                         Standard orientation:
 ---------------------------------------------------------------------
 Center     Atomic      Atomic             Coordinates (Angstroms)
 Number     Number       Type             X           Y           Z
 ---------------------------------------------------------------------
      1          6           0       -0.587627    0.732593   -0.585427
      2          6           0       -1.848800    1.225234   -0.300501
      3          6           0       -1.364631   -1.426423    0.054755
      4          6           0       -0.315248   -0.636330   -0.410036
      5          6           0       -2.834147    0.328842    0.168762
      6          6           0        2.881859    0.267917    0.060004
      7          6           0        3.848070    0.589273    1.191375
      8          6           0        1.050473   -1.217742   -0.700406
      9          7           0       -2.591553   -0.977040    0.347375
     10          7           0       -4.127925    0.752537    0.421725
     11          7           0        2.085087   -0.825696    0.258702
     12          8           0        2.839337    0.943467   -0.963508
     13          1           0        0.196561    1.392329   -0.947591
     14          1           0       -2.085903    2.276007   -0.444335
     15          1           0       -1.212545   -2.496504    0.205458
     16          1           0        4.860940    0.641375    0.781434
     17          1           0        3.607651    1.579351    1.592097
     18          1           0        3.831931   -0.138696    2.008650
     19          1           0        0.996614   -2.312163   -0.713484
     20          1           0        1.411025   -0.886987   -1.677795
     21          1           0       -4.249259    1.718817    0.692707
     22          1           0       -4.671120    0.095953    0.967996
     23          1           0        2.060449   -1.246011    1.177159
 ---------------------------------------------------------------------

 SCF Done:  E(RB3LYP) =  -550.976245489     A.U. after    1 cycles

 Isotropic polarizability for W=    0.000000      104.08 Bohr**3.
 End of Minotr Frequency-dependent properties file   721 does not exist.

                     1                      2                      3
                     A                      A                      A
 Frequencies --    33.9220                49.0142                57.0381
 Red. masses --     3.1996                 1.6631                 4.3569
 Frc consts  --     0.0022                 0.0024                 0.0084
 IR Inten    --     1.6548                 4.2878                11.9771

                     4                      5                      6
                     A                      A                      A
 Frequencies --    65.9705               130.0743               207.6494
 Red. masses --     2.1913                 4.1047                 5.7790
 Frc consts  --     0.0056                 0.0409                 0.1468
 IR Inten    --     1.6511                 7.8132                 3.5960

                     7                      8                      9
                     A                      A                      A
 Frequencies --   240.3187               323.7808               348.4948
 Red. masses --     5.4456                 2.1415                 3.5093
 Frc consts  --     0.1853                 0.1323                 0.2511
 IR Inten    --     0.3989                 6.3635                 4.3246

                    10                     11                     12
                     A                      A                      A
 Frequencies --   375.1529               417.9720               429.5472
 Red. masses --     1.1354                 2.7853                 3.2717
 Frc consts  --     0.0942                 0.2867                 0.3557
 IR Inten    --    61.2196                 4.7411                 1.1232

                    13                     14                     15
                     A                      A                      A
 Frequencies --   448.9661               466.3589               498.4855
 Red. masses --     1.2628                 3.3253                 2.2121
 Frc consts  --     0.1500                 0.4261                 0.3239
 IR Inten    --   117.2036                 7.4116               154.0170

                    16                     17                     18
                     A                      A                      A
 Frequencies --   577.2143               589.8480               616.8340
 Red. masses --     1.7433                 3.1296                 2.8860
 Frc consts  --     0.3422                 0.6415                 0.6470
 IR Inten    --   190.3121                45.3569                 7.7493

                    19                     20                     21
                     A                      A                      A
 Frequencies --   652.3242               660.7534               769.1708
 Red. masses --     3.0297                 6.3861                 3.9997
 Frc consts  --     0.7596                 1.6427                 1.3942
 IR Inten    --     3.6956                 2.3601                15.8755

                    22                     23                     24
                     A                      A                      A
 Frequencies --   796.2442               847.4079               855.1092
 Red. masses --     4.6731                 1.7167                 2.4712
 Frc consts  --     1.7456                 0.7263                 1.0646
 IR Inten    --    14.8755                29.6926                 1.5376

                    25                     26                     27
                     A                      A                      A
 Frequencies --   877.4489               953.5764               996.0425
 Red. masses --     5.6019                 1.4185                 1.5664
 Frc consts  --     2.5412                 0.7600                 0.9156
 IR Inten    --     3.2578                 3.6431                 1.8965

                    28                     29                     30
                     A                      A                      A
 Frequencies --  1006.0095              1026.2669              1046.3425
 Red. masses --     1.4117                 2.7614                 2.7522
 Frc consts  --     0.8418                 1.7136                 1.7754
 IR Inten    --     2.5822                 0.0946                16.7246

                    31                     32                     33
                     A                      A                      A
 Frequencies --  1067.4086              1093.9406              1096.3964
 Red. masses --     1.7053                 2.3162                 1.8076
 Frc consts  --     1.1447                 1.6331                 1.2802
 IR Inten    --     7.8142                24.6409                 3.1954

                    34                     35                     36
                     A                      A                      A
 Frequencies --  1178.5525              1249.0378              1268.1650
 Red. masses --     1.2079                 2.8407                 1.5314
 Frc consts  --     0.9885                 2.6112                 1.4511
 IR Inten    --    18.3876                 5.6592                43.7662

                    37                     38                     39
                     A                      A                      A
 Frequencies --  1294.9867              1346.4732              1354.2033
 Red. masses --     1.8477                 3.2100                 2.3243
 Frc consts  --     1.8256                 3.4288                 2.5114
 IR Inten    --   108.6667                15.7864                70.4840

                    40                     41                     42
                     A                      A                      A
 Frequencies --  1367.4052              1400.3557              1425.8806
 Red. masses --     1.5124                 1.3224                 1.2632
 Frc consts  --     1.6661                 1.5279                 1.5132
 IR Inten    --     0.7155                40.6750                20.9672

                    43                     44                     45
                     A                      A                      A
 Frequencies --  1458.3151              1498.2078              1501.3082
 Red. masses --     3.0307                 1.1008                 1.0501
 Frc consts  --     3.7975                 1.4558                 1.3945
 IR Inten    --    58.6134                17.4889                 3.3915

                    46                     47                     48
                     A                      A                      A
 Frequencies --  1515.3511              1547.0267              1555.4425
 Red. masses --     1.0687                 2.6016                 1.9006
 Frc consts  --     1.4458                 3.6684                 2.7092
 IR Inten    --    18.6173                90.3155               249.6233

                    49                     50                     51
                     A                      A                      A
 Frequencies --  1620.6773              1658.9979              1680.2422
 Red. masses --     5.8487                 1.7591                 2.3601
 Frc consts  --     9.0511                 2.8526                 3.9258
 IR Inten    --    24.4812                 5.2630               283.1211

                    52                     53                     54
                     A                      A                      A
 Frequencies --  1774.8444              3063.6682              3068.8491
 Red. masses --     8.9206                 1.0357                 1.0651
 Frc consts  --    16.5564                 5.7274                 5.9098
 IR Inten    --   203.9287                 8.9254                31.8364

                    55                     56                     57
                     A                      A                      A
 Frequencies --  3131.4271              3136.4840              3143.3730
 Red. masses --     1.0996                 1.1028                 1.0899
 Frc consts  --     6.3528                 6.3921                 6.3447
 IR Inten    --     1.0204                14.4952                39.9139

                    58                     59                     60
                     A                      A                      A
 Frequencies --  3144.1749              3188.0961              3208.7042
 Red. masses --     1.1020                 1.0889                 1.0949
 Frc consts  --     6.4186                 6.5205                 6.6421
 IR Inten    --    11.4615                11.4415                 4.3960

                    61                     62                     63
                     A                      A                      A
 Frequencies --  3566.1097              3621.0524              3677.7082
 Red. masses --     1.0468                 1.0776                 1.1002
 Frc consts  --     7.8436                 8.3250                 8.7673
 IR Inten    --    33.7330                14.9118                19.7420

 - Thermochemistry -
 -------------------
 Temperature   298.150 Kelvin.  Pressure   1.00000 Atm.
 Atom     1 has atomic number  6 and mass  12.00000

 Molecular mass:   165.09021 amu.
 Principal axes and moments of inertia in atomic units:
                           1         2         3
     Eigenvalues --   767.499744099.942434404.50557
           X            0.99993  -0.00777   0.00923
           Y            0.00747   0.99944   0.03249
           Z           -0.00948  -0.03242   0.99943
 This molecule is an asymmetric top.
 Rotational symmetry number  1.
 Warning -- assumption of classical behavior for rotation
           may cause significant error
 Rotational temperatures (Kelvin)      0.11285     0.02113     0.01966
 Rotational constants (GHZ):           2.35146     0.44019     0.40975
 Zero-point vibrational energy     498042.5 (Joules/Mol)
                                  119.03501 (Kcal/Mol)
 Warning -- explicit consideration of  18 degrees of freedom as
           vibrations may cause significant error
 Vibrational temperatures:     48.81    70.52    82.06    94.92   187.15
          (Kelvin)            298.76   345.76   465.85   501.41   539.76
                              601.37   618.02   645.96   670.99   717.21
                              830.48   848.66   887.49   938.55   950.68
                             1106.66  1145.62  1219.23  1230.31  1262.45
                             1371.98  1433.08  1447.42  1476.57  1505.45
                             1535.76  1573.93  1577.47  1695.67  1797.08
                             1824.60  1863.19  1937.27  1948.39  1967.39
                             2014.80  2051.52  2098.19  2155.58  2160.05
                             2180.25  2225.82  2237.93  2331.79  2386.92
                             2417.49  2553.60  4407.93  4415.38  4505.42
                             4512.70  4522.61  4523.76  4586.95  4616.60
                             5130.83  5209.88  5291.40

 Zero-point correction=                           0.189694 (Hartree/Particle)
 Thermal correction to Energy=                    0.201489
 Thermal correction to Enthalpy=                  0.202433
 Thermal correction to Gibbs Free Energy=         0.150257
 Sum of electronic and zero-point Energies=           -550.786551
 Sum of electronic and thermal Energies=              -550.774757
 Sum of electronic and thermal Enthalpies=            -550.773813
 Sum of electronic and thermal Free Energies=         -550.825988

                     E (Thermal)             CV                S
                      KCal/Mol        Cal/Mol-Kelvin    Cal/Mol-Kelvin
 Total                  126.436             43.508            109.813
 Electronic               0.000              0.000              0.000
 Translational            0.889              2.981             41.212
 Rotational               0.889              2.981             31.006
 Vibrational            124.659             37.547             37.595
 Vibration     1          0.594              1.983              5.586
 Vibration     2          0.595              1.978              4.857
 Vibration     3          0.596              1.975              4.557
 Vibration     4          0.597              1.971              4.270
 Vibration     5          0.612              1.923              2.945
 Vibration     6          0.641              1.829              2.064
 Vibration     7          0.657              1.779              1.801
 Vibration     8          0.708              1.628              1.291
 Vibration     9          0.726              1.578              1.173
 Vibration    10          0.746              1.523              1.059
 Vibration    11          0.781              1.431              0.899
 Vibration    12          0.791              1.406              0.860
 Vibration    13          0.808              1.363              0.799
 Vibration    14          0.824              1.325              0.748
 Vibration    15          0.854              1.253              0.662
 Vibration    16          0.934              1.081              0.491
 Vibration    17          0.947              1.053              0.467
 Vibration    18          0.977              0.996              0.422

 Normal termination of Gaussian 09 at Fri Feb 16 22:28:44 2018.
