 Gaussian 09, Revision C.01,
 Gaussian 09:  AM64L-G09RevC.01 23-Sep-2011

 ----------------------------------------------------------------------
 #HF/6-31G* Geom=AllCheck Guess=Read Pop=(MK,ReadRadii) Integral=(Grid=
 UltraFine) iop(6/33=2)
 ----------------------------------------------------------------------

 Structure from the checkpoint file:  frag57-conf2.chk
 -----------------------------
 Optimization for frag57-conf2
 -----------------------------
 Charge =  0 Multiplicity = 1

                         Standard orientation:
 ---------------------------------------------------------------------
 Center     Atomic      Atomic             Coordinates (Angstroms)
 Number     Number       Type             X           Y           Z
 ---------------------------------------------------------------------
      1          6           0        2.704388    1.313190    0.456668
      2          6           0        1.441206    1.747466    0.041470
      3          6           0        3.027873   -0.039562    0.452549
      4          6           0        0.811224   -0.545497   -0.394103
      5          6           0        0.488511    0.818406   -0.384830
      6          6           0        2.073373   -0.971112    0.023297
      7          6           0       -2.667320   -0.248319    0.020790
      8          6           0       -3.675745   -0.496120    1.133247
      9          6           0       -0.894713    1.262326   -0.824921
     10          7           0       -1.956231    0.915536    0.119828
     11          8           0       -2.519880   -1.040795   -0.904802
     12          8           0        2.436316   -2.289842    0.030191
     13          1           0        3.444212    2.038292    0.785629
     14          1           0        1.201266    2.808074    0.044856
     15          1           0        4.003917   -0.393075    0.769516
     16          1           0        0.066893   -1.265556   -0.729270
     17          1           0       -4.651625   -0.696361    0.681663
     18          1           0       -3.381268   -1.394795    1.685135
     19          1           0       -3.772479    0.336523    1.837032
     20          1           0       -0.912105    2.347255   -0.973883
     21          1           0       -1.167318    0.785434   -1.769742
     22          1           0       -2.013833    1.445166    0.978305
     23          1           0        1.691681   -2.819272   -0.296156
 ---------------------------------------------------------------------

 SCF Done:  E(RHF) =  -551.406569875     A.U. after   14 cycles

 The electronic state is 1-A.
 Alpha  occ. eigenvalues --  -20.59147 -20.52495 -15.59450 -11.35888 -11.30172
 Alpha  occ. eigenvalues --  -11.27386 -11.24736 -11.24271 -11.24143 -11.22895
 Alpha  occ. eigenvalues --  -11.22783 -11.22721  -1.39679  -1.37617  -1.23218
 Alpha  occ. eigenvalues --   -1.14437  -1.04484  -1.00479  -1.00003  -0.92743
 Alpha  occ. eigenvalues --   -0.83775  -0.80801  -0.78532  -0.72281  -0.69767
 Alpha  occ. eigenvalues --   -0.67614  -0.65243  -0.64147  -0.62285  -0.59848
 Alpha  occ. eigenvalues --   -0.58668  -0.58193  -0.57982  -0.56895  -0.55900
 Alpha  occ. eigenvalues --   -0.53773  -0.51933  -0.50218  -0.49052  -0.47263
 Alpha  occ. eigenvalues --   -0.42237  -0.39239  -0.33201  -0.30920
 Alpha virt. eigenvalues --    0.13323   0.15924   0.19207   0.21366   0.22686
 Alpha virt. eigenvalues --    0.24659   0.26427   0.28442   0.30104   0.31137
 Alpha virt. eigenvalues --    0.32140   0.33248   0.33566   0.34635   0.36050

 Mulliken atomic charges:
              1
     1  C   -0.180395
     2  C   -0.257368
     3  C   -0.248818
     4  C   -0.325217
     5  C    0.044140
     6  C    0.422517
     7  C    0.764900
     8  C   -0.575672
     9  C   -0.167365
    10  N   -0.788827
    11  O   -0.636463
    12  O   -0.764680
    13  H    0.205100
    14  H    0.192621
    15  H    0.218483
    16  H    0.242982
    17  H    0.211638
    18  H    0.206364
    19  H    0.169337
    20  H    0.188616
    21  H    0.233849
    22  H    0.384502
    23  H    0.459756
 Sum of Mulliken atomic charges =   0.00000

 Dipole moment (field-independent basis, Debye):
    X=             -1.3564    Y=              2.5417    Z=              2.3107  Tot=              3.6932
 Quadrupole moment (field-independent basis, Debye-Ang):
   XX=            -71.2764   YY=            -65.7640   ZZ=            -72.4621
   XY=             -0.8517   XZ=             -6.9285   YZ=              0.2773

 Normal termination of Gaussian 09 at Sat Feb 17 21:08:10 2018.
