 Gaussian 09, Revision C.01,
 Gaussian 09:  AM64L-G09RevC.01 23-Sep-2011

 ---------------------------------------------------------
 #B3LYP/6-31G* Integral=(Grid=UltraFine) freq Opt pop=none
 ---------------------------------------------------------

 99/9=1/99;
 -----------------------------
 Optimization for frag57-conf2
 -----------------------------
 Charge =  0 Multiplicity = 1

 SCF Done:  E(RB3LYP) =  -554.789078449     A.U. after   15 cycles
 SCF Done:  E(RB3LYP) =  -554.790625942     A.U. after   12 cycles
 SCF Done:  E(RB3LYP) =  -554.790741949     A.U. after   11 cycles
 SCF Done:  E(RB3LYP) =  -554.790763912     A.U. after   10 cycles
 SCF Done:  E(RB3LYP) =  -554.790796488     A.U. after   10 cycles
 SCF Done:  E(RB3LYP) =  -554.790853929     A.U. after   11 cycles
 SCF Done:  E(RB3LYP) =  -554.790941889     A.U. after   13 cycles
 SCF Done:  E(RB3LYP) =  -554.790969588     A.U. after   12 cycles
 SCF Done:  E(RB3LYP) =  -554.791316032     A.U. after   14 cycles
 SCF Done:  E(RB3LYP) =  -554.791615731     A.U. after   13 cycles
 SCF Done:  E(RB3LYP) =  -554.793489961     A.U. after   12 cycles
 SCF Done:  E(RB3LYP) =  -554.793509607     A.U. after   11 cycles
 SCF Done:  E(RB3LYP) =  -554.793512353     A.U. after    9 cycles
 SCF Done:  E(RB3LYP) =  -554.793512877     A.U. after    8 cycles
 SCF Done:  E(RB3LYP) =  -554.793513032     A.U. after    8 cycles
 SCF Done:  E(RB3LYP) =  -554.793513161     A.U. after    7 cycles
 SCF Done:  E(RB3LYP) =  -554.793513273     A.U. after    7 cycles
 SCF Done:  E(RB3LYP) =  -554.793513395     A.U. after    8 cycles
 SCF Done:  E(RB3LYP) =  -554.793513420     A.U. after    7 cycles
 Optimization completed.
    -- Stationary point found.
 Normal termination of Gaussian 09 at Fri Feb 16 22:36:25 2018.

 --------------------------------------------------------------------
 #N Geom=AllCheck Guess=TCheck SCRF=Check GenChk RB3LYP/6-31G(d) Freq
 --------------------------------------------------------------------

 Structure from the checkpoint file:  frag57-conf2.chk
 -----------------------------
 Optimization for frag57-conf2
 -----------------------------
 Charge =  0 Multiplicity = 1

                         Standard orientation:
 ---------------------------------------------------------------------
 Center     Atomic      Atomic             Coordinates (Angstroms)
 Number     Number       Type             X           Y           Z
 ---------------------------------------------------------------------
      1          6           0        2.704388    1.313190    0.456668
      2          6           0        1.441206    1.747466    0.041470
      3          6           0        3.027873   -0.039562    0.452549
      4          6           0        0.811224   -0.545497   -0.394103
      5          6           0        0.488511    0.818406   -0.384830
      6          6           0        2.073373   -0.971112    0.023297
      7          6           0       -2.667320   -0.248319    0.020790
      8          6           0       -3.675745   -0.496120    1.133247
      9          6           0       -0.894713    1.262326   -0.824921
     10          7           0       -1.956231    0.915536    0.119828
     11          8           0       -2.519880   -1.040795   -0.904802
     12          8           0        2.436316   -2.289842    0.030191
     13          1           0        3.444212    2.038292    0.785629
     14          1           0        1.201266    2.808074    0.044856
     15          1           0        4.003917   -0.393075    0.769516
     16          1           0        0.066893   -1.265556   -0.729270
     17          1           0       -4.651625   -0.696361    0.681663
     18          1           0       -3.381268   -1.394795    1.685135
     19          1           0       -3.772479    0.336523    1.837032
     20          1           0       -0.912105    2.347255   -0.973883
     21          1           0       -1.167318    0.785434   -1.769742
     22          1           0       -2.013833    1.445166    0.978305
     23          1           0        1.691681   -2.819272   -0.296156
 ---------------------------------------------------------------------

 SCF Done:  E(RB3LYP) =  -554.793513420     A.U. after    1 cycles

 Isotropic polarizability for W=    0.000000      101.71 Bohr**3.
 End of Minotr Frequency-dependent properties file   721 does not exist.

                     1                      2                      3
                     A                      A                      A
 Frequencies --    33.9937                46.1393                62.5297
 Red. masses --     3.3021                 1.6616                 5.8105
 Frc consts  --     0.0022                 0.0021                 0.0134
 IR Inten    --     2.1117                 1.8760                14.5117

                     4                      5                      6
                     A                      A                      A
 Frequencies --    67.9523               171.3984               209.1995
 Red. masses --     1.8848                 4.9540                 5.9083
 Frc consts  --     0.0051                 0.0857                 0.1523
 IR Inten    --     0.9339                 1.8172                 5.9111

                     7                      8                      9
                     A                      A                      A
 Frequencies --   237.2288               301.4120               325.9512
 Red. masses --     4.3514                 3.8131                 2.3554
 Frc consts  --     0.1443                 0.2041                 0.1474
 IR Inten    --     0.2939                 0.6935                 1.0743

                    10                     11                     12
                     A                      A                      A
 Frequencies --   390.2919               426.3271               450.0077
 Red. masses --     1.0985                 3.5760                 2.5812
 Frc consts  --     0.0986                 0.3829                 0.3080
 IR Inten    --   118.3079                 5.6604                 6.7493

                    13                     14                     15
                     A                      A                      A
 Frequencies --   455.5391               483.4420               534.9448
 Red. masses --     1.3488                 3.0782                 5.9921
 Frc consts  --     0.1649                 0.4239                 1.0103
 IR Inten    --   102.8577                21.1797                 1.1523

                    16                     17                     18
                     A                      A                      A
 Frequencies --   549.4872               611.4444               625.2568
 Red. masses --     5.2360                 4.1519                 2.6353
 Frc consts  --     0.9315                 0.9146                 0.6070
 IR Inten    --     8.2863                 6.4950                 3.6812

                    19                     20                     21
                     A                      A                      A
 Frequencies --   667.1186               716.1425               764.1437
 Red. masses --     3.7207                 2.6997                 3.4262
 Frc consts  --     0.9756                 0.8158                 1.1787
 IR Inten    --     1.1256                10.8500                28.2625

                    22                     23                     24
                     A                      A                      A
 Frequencies --   804.4372               855.2703               889.9791
 Red. masses --     1.6642                 2.6475                 1.4045
 Frc consts  --     0.6345                 1.1410                 0.6554
 IR Inten    --    22.5125                 2.2571                 0.7248

                    25                     26                     27
                     A                      A                      A
 Frequencies --   893.8508               967.3049               967.9766
 Red. masses --     1.4407                 1.5412                 2.1857
 Frc consts  --     0.6782                 0.8497                 1.2066
 IR Inten    --    22.2740                 1.0392                 1.4489

                    28                     29                     30
                     A                      A                      A
 Frequencies --  1002.3901              1014.5904              1039.3626
 Red. masses --     1.7218                 6.1496                 2.5433
 Frc consts  --     1.0193                 3.7298                 1.6187
 IR Inten    --     3.9321                 2.6592                 1.1060

                    31                     32                     33
                     A                      A                      A
 Frequencies --  1068.1872              1098.6601              1113.9046
 Red. masses --     1.7035                 2.9743                 1.6310
 Frc consts  --     1.1452                 2.1153                 1.1923
 IR Inten    --     7.9692                11.8566                 8.6782

                    34                     35                     36
                     A                      A                      A
 Frequencies --  1194.3473              1200.1566              1217.9865
 Red. masses --     1.1532                 1.9723                 1.2972
 Frc consts  --     0.9692                 1.6738                 1.1338
 IR Inten    --    18.5146                38.3967               118.2433

                    37                     38                     39
                     A                      A                      A
 Frequencies --  1269.5171              1295.3597              1327.8608
 Red. masses --     1.4633                 1.7004                 3.0459
 Frc consts  --     1.3895                 1.6811                 3.1643
 IR Inten    --    26.4096               165.5223                44.6745

                    40                     41                     42
                     A                      A                      A
 Frequencies --  1365.5891              1383.0427              1402.8933
 Red. masses --     1.6768                 2.2721                 1.3927
 Frc consts  --     1.8423                 2.5606                 1.6150
 IR Inten    --     0.9770                11.3795                22.6536

                    43                     44                     45
                     A                      A                      A
 Frequencies --  1426.0643              1499.2574              1501.5191
 Red. masses --     1.2615                 1.1368                 1.0769
 Frc consts  --     1.5115                 1.5056                 1.4304
 IR Inten    --    21.9616                24.7361                 5.7290

                    46                     47                     48
                     A                      A                      A
 Frequencies --  1506.5099              1515.3125              1552.7538
 Red. masses --     2.4767                 1.0683                 2.2343
 Frc consts  --     3.3119                 1.4453                 3.1739
 IR Inten    --    85.7188                16.0858                80.8174

                    49                     50                     51
                     A                      A                      A
 Frequencies --  1559.8090              1660.8005              1665.5009
 Red. masses --     2.0578                 5.7827                 5.8525
 Frc consts  --     2.9498                 9.3976                 9.5649
 IR Inten    --   124.6938                55.7115                52.7541

                    52                     53                     54
                     A                      A                      A
 Frequencies --  1773.4155              3064.0215              3073.9971
 Red. masses --     8.8882                 1.0357                 1.0642
 Frc consts  --    16.4696                 5.7289                 5.9246
 IR Inten    --   195.7920                 8.4426                32.0502

                    55                     56                     57
                     A                      A                      A
 Frequencies --  3134.8731              3136.0028              3145.7382
 Red. masses --     1.1011                 1.1024                 1.1022
 Frc consts  --     6.3755                 6.3879                 6.4260
 IR Inten    --     0.2726                16.0224                11.0402

                    58                     59                     60
                     A                      A                      A
 Frequencies --  3178.2496              3179.1792              3196.0383
 Red. masses --     1.0870                 1.0910                 1.0921
 Frc consts  --     6.4693                 6.4972                 6.5724
 IR Inten    --     9.1025                 4.3216                22.6237

                    61                     62                     63
                     A                      A                      A
 Frequencies --  3217.5062              3621.8543              3745.7017
 Red. masses --     1.0942                 1.0776                 1.0659
 Frc consts  --     6.6739                 8.3286                 8.8111
 IR Inten    --    10.4382                15.5388                38.3870

 - Thermochemistry -
 -------------------
 Temperature   298.150 Kelvin.  Pressure   1.00000 Atm.
 Atom     1 has atomic number  6 and mass  12.00000

 Molecular mass:   165.07898 amu.
 Principal axes and moments of inertia in atomic units:
                           1         2         3
     Eigenvalues --  1098.822303348.410724025.84294
           X            0.99991   0.00710  -0.01167
           Y           -0.00717   0.99995  -0.00668
           Z            0.01162   0.00677   0.99991
 This molecule is an asymmetric top.
 Rotational symmetry number  1.
 Warning -- assumption of classical behavior for rotation
           may cause significant error
 Rotational temperatures (Kelvin)      0.07882     0.02587     0.02151
 Rotational constants (GHZ):           1.64243     0.53898     0.44829
 Zero-point vibrational energy     495593.3 (Joules/Mol)
                                  118.44963 (Kcal/Mol)
 Warning -- explicit consideration of  17 degrees of freedom as
           vibrations may cause significant error
 Vibrational temperatures:     48.91    66.38    89.97    97.77   246.60
          (Kelvin)            300.99   341.32   433.66   468.97   561.54
                              613.39   647.46   655.42   695.56   769.67
                              790.59   879.73   899.60   959.83  1030.37
                             1099.43  1157.40  1230.54  1280.48  1286.05
                             1391.73  1392.70  1442.21  1459.77  1495.41
                             1536.88  1580.72  1602.66  1718.40  1726.76
                             1752.41  1826.55  1863.73  1910.49  1964.78
                             1989.89  2018.45  2051.79  2157.09  2160.35
                             2167.53  2180.19  2234.06  2244.21  2389.52
                             2396.28  2551.55  4408.44  4422.79  4510.38
                             4512.00  4526.01  4572.79  4574.12  4598.38
                             4629.27  5211.03  5389.22

 Zero-point correction=                           0.188762 (Hartree/Particle)
 Thermal correction to Energy=                    0.200416
 Thermal correction to Enthalpy=                  0.201361
 Thermal correction to Gibbs Free Energy=         0.149535
 Sum of electronic and zero-point Energies=           -554.604752
 Sum of electronic and thermal Energies=              -554.593097
 Sum of electronic and thermal Enthalpies=            -554.592153
 Sum of electronic and thermal Free Energies=         -554.643979

                     E (Thermal)             CV                S
                      KCal/Mol        Cal/Mol-Kelvin    Cal/Mol-Kelvin
 Total                  125.763             43.257            109.076
 Electronic               0.000              0.000              0.000
 Translational            0.889              2.981             41.212
 Rotational               0.889              2.981             31.072
 Vibrational            123.986             37.296             36.792
 Vibration     1          0.594              1.983              5.582
 Vibration     2          0.595              1.979              4.976
 Vibration     3          0.597              1.972              4.376
 Vibration     4          0.598              1.969              4.212
 Vibration     5          0.626              1.878              2.420
 Vibration     6          0.642              1.827              2.051
 Vibration     7          0.656              1.784              1.824
 Vibration     8          0.693              1.671              1.409
 Vibration     9          0.710              1.624              1.280
 Vibration    10          0.758              1.491              0.999
 Vibration    11          0.788              1.413              0.871
 Vibration    12          0.809              1.361              0.796
 Vibration    13          0.814              1.349              0.779
 Vibration    14          0.840              1.287              0.701
 Vibration    15          0.890              1.173              0.576
 Vibration    16          0.905              1.141              0.545
 Vibration    17          0.971              1.008              0.430

 Optimization completed.
    -- Stationary point found.
 Normal termination of Gaussian 09 at Fri Feb 16 22:51:50 2018.
