 Gaussian 09, Revision C.01,
 Gaussian 09:  AM64L-G09RevC.01 23-Sep-2011

 ----------------------------------------------------------------------
 #HF/6-31G* Geom=AllCheck Guess=Read Pop=(MK,ReadRadii) Integral=(Grid=
 UltraFine) iop(6/33=2)
 ----------------------------------------------------------------------

 Structure from the checkpoint file:  frag33-conf2.chk
 -----------------------------
 Optimization for frag33-conf2
 -----------------------------
 Charge =  0 Multiplicity = 1

                         Standard orientation:
 ---------------------------------------------------------------------
 Center     Atomic      Atomic             Coordinates (Angstroms)
 Number     Number       Type             X           Y           Z
 ---------------------------------------------------------------------
      1          6           0        0.407471    1.276233   -0.548391
      2          6           0       -3.206010   -0.707922    1.345867
      3          6           0       -4.256347   -0.468689   -0.941863
      4          6           0        1.394469    3.476269   -0.310721
      5          6           0        0.250924    2.451258    1.647821
      6          6           0        2.645010   -1.472064   -1.226101
      7          6           0       -1.885240    0.298688   -0.609403
      8          6           0       -0.483598    0.151095    0.020646
      9          6           0       -2.952894   -0.724626   -0.169218
     10          7           0        0.078607   -1.158065   -0.357242
     11          7           0        0.566735    2.396169    0.219022
     12          8           0        0.874242    1.174795   -1.682132
     13          8           0        1.525848   -2.966566    0.671589
     14          8           0        2.057228   -0.516230    1.175516
     15         16           0        1.614311   -1.565341    0.243054
     16          1           0       -3.534677    0.286620    1.675426
     17          1           0       -3.992206   -1.421865    1.616299
     18          1           0       -2.312720   -0.973270    1.922850
     19          1           0       -4.664650    0.521726   -0.702517
     20          1           0       -4.093399   -0.510164   -2.024878
     21          1           0       -5.018424   -1.213632   -0.686173
     22          1           0        0.923262    4.442250   -0.099265
     23          1           0        1.492716    3.341231   -1.386588
     24          1           0        2.395411    3.464964    0.141451
     25          1           0        0.826043    1.710387    2.214438
     26          1           0       -0.817614    2.303851    1.835955
     27          1           0        0.511748    3.446392    2.014518
     28          1           0        3.676147   -1.638009   -0.905562
     29          1           0        2.323230   -2.252668   -1.917017
     30          1           0        2.509733   -0.482781   -1.665574
     31          1           0       -2.249807    1.307461   -0.367310
     32          1           0       -1.758328    0.258850   -1.697248
     33          1           0       -0.555079    0.233506    1.107430
     34          1           0       -2.609602   -1.732822   -0.448458
     35          1           0       -0.539407   -1.930745   -0.120707
 ---------------------------------------------------------------------

 SCF Done:  E(RHF) =  -1083.38178539     A.U. after   13 cycles

 The electronic state is 1-A.
 Alpha  occ. eigenvalues --  -92.20614 -20.55729 -20.55405 -20.52963 -15.60686
 Alpha  occ. eigenvalues --  -15.59834 -11.36026 -11.29629 -11.27224 -11.26262
 Alpha  occ. eigenvalues --  -11.25883 -11.25006 -11.24559 -11.23067 -11.22748
 Alpha  occ. eigenvalues --   -9.17803  -6.86383  -6.86375  -6.86254  -1.44967
 Alpha  occ. eigenvalues --   -1.38271  -1.33221  -1.24581  -1.23527  -1.10595
 Alpha  occ. eigenvalues --   -1.04108  -1.01042  -0.97519  -0.94513  -0.94246
 Alpha  occ. eigenvalues --   -0.88275  -0.83380  -0.78195  -0.73962  -0.71992
 Alpha  occ. eigenvalues --   -0.70817  -0.67774  -0.66316  -0.65058  -0.64668
 Alpha  occ. eigenvalues --   -0.64394  -0.62843  -0.61319  -0.59674  -0.58892
 Alpha  occ. eigenvalues --   -0.57676  -0.57495  -0.56778  -0.56295  -0.55572
 Alpha  occ. eigenvalues --   -0.54847  -0.53481  -0.53145  -0.51895  -0.50526
 Alpha  occ. eigenvalues --   -0.49075  -0.47987  -0.47889  -0.47809  -0.46197
 Alpha  occ. eigenvalues --   -0.45324  -0.42506  -0.41695  -0.37416
 Alpha virt. eigenvalues --    0.17528   0.19216   0.21780   0.22898   0.24855
 Alpha virt. eigenvalues --    0.25193   0.25551   0.26230   0.27476   0.27993
 Alpha virt. eigenvalues --    0.28312   0.28750   0.29094   0.29471   0.30385

 Mulliken atomic charges:
              1
     1  C    0.807086
     2  C   -0.484409
     3  C   -0.473956
     4  C   -0.295411
     5  C   -0.310909
     6  C   -0.714822
     7  C   -0.321561
     8  C   -0.063502
     9  C   -0.172821
    10  N   -0.887702
    11  N   -0.664539
    12  O   -0.653488
    13  O   -0.693011
    14  O   -0.720776
    15  S    1.607447
    16  H    0.157355
    17  H    0.173538
    18  H    0.165075
    19  H    0.158085
    20  H    0.169728
    21  H    0.167910
    22  H    0.166340
    23  H    0.230116
    24  H    0.173347
    25  H    0.219535
    26  H    0.172003
    27  H    0.189162
    28  H    0.221364
    29  H    0.223212
    30  H    0.278635
    31  H    0.174376
    32  H    0.212242
    33  H    0.219934
    34  H    0.156513
    35  H    0.413902
 Sum of Mulliken atomic charges =   0.00000

 Dipole moment (field-independent basis, Debye):
    X=             -2.8283    Y=              2.7942    Z=             -0.0225  Tot=              3.9758
 Quadrupole moment (field-independent basis, Debye-Ang):
   XX=            -95.1080   YY=           -100.8306   ZZ=           -106.2724
   XY=              4.6051   XZ=             -6.4881   YZ=             10.8635

 Normal termination of Gaussian 09 at Sat Feb 17 21:04:32 2018.
