 Gaussian 09, Revision C.01,
 Gaussian 09:  AM64L-G09RevC.01 23-Sep-2011

 ---------------------------------------------------------
 #B3LYP/6-31G* Integral=(Grid=UltraFine) freq Opt pop=none
 ---------------------------------------------------------

 99/9=1/99;
 -----------------------------
 Optimization for frag33-conf2
 -----------------------------
 Charge =  0 Multiplicity = 1

 SCF Done:  E(RB3LYP) =  -1088.31008664     A.U. after   15 cycles
 SCF Done:  E(RB3LYP) =  -1088.31520550     A.U. after   12 cycles
 SCF Done:  E(RB3LYP) =  -1088.31572209     A.U. after   13 cycles
 SCF Done:  E(RB3LYP) =  -1088.31603931     A.U. after   13 cycles
 SCF Done:  E(RB3LYP) =  -1088.31619605     A.U. after   12 cycles
 SCF Done:  E(RB3LYP) =  -1088.31634958     A.U. after   13 cycles
 SCF Done:  E(RB3LYP) =  -1088.31644479     A.U. after   12 cycles
 SCF Done:  E(RB3LYP) =  -1088.31651147     A.U. after   11 cycles
 SCF Done:  E(RB3LYP) =  -1088.31657735     A.U. after   12 cycles
 SCF Done:  E(RB3LYP) =  -1088.31663106     A.U. after   11 cycles
 SCF Done:  E(RB3LYP) =  -1088.31683594     A.U. after   11 cycles
 SCF Done:  E(RB3LYP) =  -1088.31684517     A.U. after   10 cycles
 SCF Done:  E(RB3LYP) =  -1088.31685219     A.U. after    9 cycles
 SCF Done:  E(RB3LYP) =  -1088.31685668     A.U. after   10 cycles
 SCF Done:  E(RB3LYP) =  -1088.31685870     A.U. after    8 cycles
 SCF Done:  E(RB3LYP) =  -1088.31686048     A.U. after    9 cycles
 SCF Done:  E(RB3LYP) =  -1088.31686125     A.U. after    8 cycles
 SCF Done:  E(RB3LYP) =  -1088.31686160     A.U. after    8 cycles
 SCF Done:  E(RB3LYP) =  -1088.31686167     A.U. after    7 cycles
 Optimization completed.
    -- Stationary point found.
 Normal termination of Gaussian 09 at Fri Feb 16 21:29:42 2018.

 --------------------------------------------------------------------
 #N Geom=AllCheck Guess=TCheck SCRF=Check GenChk RB3LYP/6-31G(d) Freq
 --------------------------------------------------------------------

 Structure from the checkpoint file:  frag33-conf2.chk
 -----------------------------
 Optimization for frag33-conf2
 -----------------------------
 Charge =  0 Multiplicity = 1

                         Standard orientation:
 ---------------------------------------------------------------------
 Center     Atomic      Atomic             Coordinates (Angstroms)
 Number     Number       Type             X           Y           Z
 ---------------------------------------------------------------------
      1          6           0        0.407471    1.276233   -0.548391
      2          6           0       -3.206010   -0.707922    1.345867
      3          6           0       -4.256347   -0.468689   -0.941863
      4          6           0        1.394469    3.476269   -0.310721
      5          6           0        0.250924    2.451258    1.647821
      6          6           0        2.645010   -1.472064   -1.226101
      7          6           0       -1.885240    0.298688   -0.609403
      8          6           0       -0.483598    0.151095    0.020646
      9          6           0       -2.952894   -0.724626   -0.169218
     10          7           0        0.078607   -1.158065   -0.357242
     11          7           0        0.566735    2.396169    0.219022
     12          8           0        0.874242    1.174795   -1.682132
     13          8           0        1.525848   -2.966566    0.671589
     14          8           0        2.057228   -0.516230    1.175516
     15         16           0        1.614311   -1.565341    0.243054
     16          1           0       -3.534677    0.286620    1.675426
     17          1           0       -3.992206   -1.421865    1.616299
     18          1           0       -2.312720   -0.973270    1.922850
     19          1           0       -4.664650    0.521726   -0.702517
     20          1           0       -4.093399   -0.510164   -2.024878
     21          1           0       -5.018424   -1.213632   -0.686173
     22          1           0        0.923262    4.442250   -0.099265
     23          1           0        1.492716    3.341231   -1.386588
     24          1           0        2.395411    3.464964    0.141451
     25          1           0        0.826043    1.710387    2.214438
     26          1           0       -0.817614    2.303851    1.835955
     27          1           0        0.511748    3.446392    2.014518
     28          1           0        3.676147   -1.638009   -0.905562
     29          1           0        2.323230   -2.252668   -1.917017
     30          1           0        2.509733   -0.482781   -1.665574
     31          1           0       -2.249807    1.307461   -0.367310
     32          1           0       -1.758328    0.258850   -1.697248
     33          1           0       -0.555079    0.233506    1.107430
     34          1           0       -2.609602   -1.732822   -0.448458
     35          1           0       -0.539407   -1.930745   -0.120707
 ---------------------------------------------------------------------

 SCF Done:  E(RB3LYP) =  -1088.31686167     A.U. after    1 cycles

 Isotropic polarizability for W=    0.000000      133.44 Bohr**3.
 End of Minotr Frequency-dependent properties file   721 does not exist.

                     1                      2                      3
                     A                      A                      A
 Frequencies --    29.9102                36.7839                47.3352
 Red. masses --     3.4709                 2.7804                 4.2505
 Frc consts  --     0.0018                 0.0022                 0.0056
 IR Inten    --     1.7521                 0.3859                 2.3372

                     4                      5                      6
                     A                      A                      A
 Frequencies --    63.7097                78.6437                88.4952
 Red. masses --     2.9026                 3.5919                 4.2613
 Frc consts  --     0.0069                 0.0131                 0.0197
 IR Inten    --     0.5340                 3.3783                 6.3101

                     7                      8                      9
                     A                      A                      A
 Frequencies --   108.3787               137.8910               148.6010
 Red. masses --     1.2695                 1.8137                 3.1577
 Frc consts  --     0.0088                 0.0203                 0.0411
 IR Inten    --     0.7733                 6.7995                 0.6667

                    10                     11                     12
                     A                      A                      A
 Frequencies --   163.6077               200.9625               220.9844
 Red. masses --     1.9901                 2.4236                 1.5107
 Frc consts  --     0.0314                 0.0577                 0.0435
 IR Inten    --     0.8933                 0.9517                 0.4175

                    13                     14                     15
                     A                      A                      A
 Frequencies --   226.0507               234.7899               248.3908
 Red. masses --     1.3798                 1.2154                 1.7929
 Frc consts  --     0.0415                 0.0395                 0.0652
 IR Inten    --     1.0202                 0.2438                 1.6812

                    16                     17                     18
                     A                      A                      A
 Frequencies --   255.3526               262.9899               288.4666
 Red. masses --     4.2095                 2.4885                 2.1993
 Frc consts  --     0.1617                 0.1014                 0.1078
 IR Inten    --     3.8060                 7.1497                 0.1768

                    19                     20                     21
                     A                      A                      A
 Frequencies --   316.3268               337.6169               386.3772
 Red. masses --     3.5141                 3.5662                 3.2886
 Frc consts  --     0.2072                 0.2395                 0.2893
 IR Inten    --     1.9180                 1.1465                 5.3883

                    22                     23                     24
                     A                      A                      A
 Frequencies --   395.0138               418.9117               427.7886
 Red. masses --     2.4822                 2.3057                 2.4371
 Frc consts  --     0.2282                 0.2384                 0.2628
 IR Inten    --     5.7774                24.6403                 5.0875

                    25                     26                     27
                     A                      A                      A
 Frequencies --   452.6851               464.1824               508.1071
 Red. masses --     3.8860                 2.7537                 5.5576
 Frc consts  --     0.4692                 0.3496                 0.8454
 IR Inten    --    10.4362                42.5047                23.4537

                    28                     29                     30
                     A                      A                      A
 Frequencies --   537.1200               605.4831               647.4739
 Red. masses --     4.2188                 2.6760                 4.0788
 Frc consts  --     0.7171                 0.5780                 1.0075
 IR Inten    --    28.8337                47.8571                17.1163

                    31                     32                     33
                     A                      A                      A
 Frequencies --   723.2868               736.1818               789.4687
 Red. masses --     5.0457                 5.2903                 3.6999
 Frc consts  --     1.5552                 1.6893                 1.3586
 IR Inten    --    11.6918                 5.7435                56.3291

                    34                     35                     36
                     A                      A                      A
 Frequencies --   849.5842               887.2685               920.8277
 Red. masses --     2.8276                 1.9739                 2.9668
 Frc consts  --     1.2025                 0.9155                 1.4822
 IR Inten    --     4.8647                33.8665                60.1918

                    37                     38                     39
                     A                      A                      A
 Frequencies --   940.3329               961.4888               972.5336
 Red. masses --     1.2191                 2.5200                 1.7962
 Frc consts  --     0.6351                 1.3726                 1.0010
 IR Inten    --     1.2912                18.1462                 1.1000

                    40                     41                     42
                     A                      A                      A
 Frequencies --   980.2018              1008.4137              1020.9591
 Red. masses --     1.7989                 1.4358                 1.3778
 Frc consts  --     1.0183                 0.8602                 0.8461
 IR Inten    --     3.9431                34.9168                18.4916

                    43                     44                     45
                     A                      A                      A
 Frequencies --  1036.0850              1082.7152              1091.6807
 Red. masses --     1.9071                 3.1886                 1.5552
 Frc consts  --     1.2062                 2.2023                 1.0920
 IR Inten    --     5.8508                61.1539                14.1170

                    46                     47                     48
                     A                      A                      A
 Frequencies --  1120.6477              1134.9541              1146.6204
 Red. masses --     7.3837                 1.2538                 2.1018
 Frc consts  --     5.4634                 0.9516                 1.6281
 IR Inten    --   126.0449                 5.4611                 5.8208

                    49                     50                     51
                     A                      A                      A
 Frequencies --  1158.5538              1175.6747              1198.8152
 Red. masses --     1.9334                 1.3624                 1.9637
 Frc consts  --     1.5290                 1.1095                 1.6627
 IR Inten    --    79.9488                 1.4640                 5.8184

                    52                     53                     54
                     A                      A                      A
 Frequencies --  1207.2935              1273.2551              1293.2544
 Red. masses --     1.9387                 1.3827                 3.8617
 Frc consts  --     1.6649                 1.3208                 3.8054
 IR Inten    --    17.9691                20.5853                15.2703

                    55                     56                     57
                     A                      A                      A
 Frequencies --  1302.8224              1315.9996              1364.2645
 Red. masses --     2.4922                 1.8582                 1.3113
 Frc consts  --     2.4923                 1.8961                 1.4379
 IR Inten    --   110.8547                52.8348                12.0069

                    58                     59                     60
                     A                      A                      A
 Frequencies --  1377.5034              1383.8950              1391.5936
 Red. masses --     1.4519                 1.2088                 1.3669
 Frc consts  --     1.6232                 1.3640                 1.5596
 IR Inten    --    72.8242                16.5715                81.7927

                    61                     62                     63
                     A                      A                      A
 Frequencies --  1399.7659              1422.8029              1431.6026
 Red. masses --     1.5036                 1.6845                 1.2684
 Frc consts  --     1.7358                 2.0091                 1.5316
 IR Inten    --     9.7854                46.9547                12.0464

                    64                     65                     66
                     A                      A                      A
 Frequencies --  1450.8621              1453.3177              1473.8017
 Red. masses --     1.2268                 1.1659                 1.4152
 Frc consts  --     1.5215                 1.4509                 1.8111
 IR Inten    --     6.4979                10.3389                47.7429

                    67                     68                     69
                     A                      A                      A
 Frequencies --  1479.6900              1495.3102              1497.4340
 Red. masses --     1.0780                 1.0508                 1.2503
 Frc consts  --     1.3906                 1.3843                 1.6518
 IR Inten    --     7.1268                 4.7757                28.7618

                    70                     71                     72
                     A                      A                      A
 Frequencies --  1506.1657              1518.9474              1524.8288
 Red. masses --     1.0948                 1.0484                 1.0522
 Frc consts  --     1.4633                 1.4252                 1.4414
 IR Inten    --     6.2597                 0.9114                 2.0465

                    73                     74                     75
                     A                      A                      A
 Frequencies --  1526.3789              1530.4884              1535.3291
 Red. masses --     1.0673                 1.0843                 1.0550
 Frc consts  --     1.4651                 1.4965                 1.4653
 IR Inten    --    14.2807                 2.3544                 4.9829

                    76                     77                     78
                     A                      A                      A
 Frequencies --  1539.2510              1540.6560              1556.3678
 Red. masses --     1.0479                 1.0480                 1.1473
 Frc consts  --     1.4628                 1.4656                 1.6373
 IR Inten    --    10.3186                 6.9825                50.1488

                    79                     80                     81
                     A                      A                      A
 Frequencies --  1750.4008              3004.8156              3034.1077
 Red. masses --     9.0083                 1.0820                 1.0626
 Frc consts  --    16.2618                 5.7561                 5.7634
 IR Inten    --   256.5936                20.1965                16.8388

                    82                     83                     84
                     A                      A                      A
 Frequencies --  3038.0302              3038.3185              3043.7878
 Red. masses --     1.0367                 1.0422                 1.0402
 Frc consts  --     5.6378                 5.6686                 5.6781
 IR Inten    --    28.5805                47.1359                32.6784

                    85                     86                     87
                     A                      A                      A
 Frequencies --  3053.6966              3086.0739              3091.6761
 Red. masses --     1.0362                 1.0289                 1.0924
 Frc consts  --     5.6932                 5.7733                 6.1520
 IR Inten    --    24.8599                 7.3411                 2.2034

                    88                     89                     90
                     A                      A                      A
 Frequencies --  3098.9392              3101.6198              3107.6225
 Red. masses --     1.0999                 1.1004                 1.0956
 Frc consts  --     6.2235                 6.2368                 6.2340
 IR Inten    --    30.9763                11.7395                35.2670

                    91                     92                     93
                     A                      A                      A
 Frequencies --  3108.0769              3114.3830              3117.0213
 Red. masses --     1.0985                 1.1014                 1.1023
 Frc consts  --     6.2523                 6.2942                 6.3100
 IR Inten    --    35.9115                45.4983                46.9584

                    94                     95                     96
                     A                      A                      A
 Frequencies --  3119.1780              3148.4585              3188.9402
 Red. masses --     1.1017                 1.1009                 1.1068
 Frc consts  --     6.3151                 6.4297                 6.6317
 IR Inten    --    18.8032                17.4502                 1.1728

                    97                     98                     99
                     A                      A                      A
 Frequencies --  3194.4762              3201.1766              3542.1434
 Red. masses --     1.0970                 1.1088                 1.0746
 Frc consts  --     6.5955                 6.6944                 7.9441
 IR Inten    --     1.3887                 5.0814                24.9109

 - Thermochemistry -
 -------------------
 Temperature   298.150 Kelvin.  Pressure   1.00000 Atm.
 Atom     1 has atomic number  6 and mass  12.00000

 Molecular mass:   236.11946 amu.
 Principal axes and moments of inertia in atomic units:
                           1         2         3
     Eigenvalues --  3280.939914170.023355940.81857
           X            0.99658   0.08169  -0.01231
           Y           -0.08129   0.99625   0.02968
           Z            0.01469  -0.02857   0.99948
 This molecule is an asymmetric top.
 Rotational symmetry number  1.
 Warning -- assumption of classical behavior for rotation
           may cause significant error
 Rotational temperatures (Kelvin)      0.02640     0.02077     0.01458
 Rotational constants (GHZ):           0.55007     0.43279     0.30379
 Zero-point vibrational energy     791033.9 (Joules/Mol)
                                  189.06165 (Kcal/Mol)
 Warning -- explicit consideration of  29 degrees of freedom as
           vibrations may cause significant error
 Vibrational temperatures:     43.03    52.92    68.10    91.66   113.15
          (Kelvin)            127.32   155.93   198.39   213.80   235.39
                              289.14   317.95   325.24   337.81   357.38
                              367.39   378.38   415.04   455.12   485.75
                              555.91   568.34   602.72   615.49   651.31
                              667.85   731.05   772.79   871.15   931.57
                             1040.65  1059.20  1135.87  1222.36  1276.58
                             1324.86  1352.93  1383.37  1399.26  1410.29
                             1450.88  1468.93  1490.69  1557.78  1570.68
                             1612.36  1632.94  1649.73  1666.90  1691.53
                             1724.83  1737.02  1831.93  1860.70  1874.47
                             1893.43  1962.87  1981.92  1991.11  2002.19
                             2013.95  2047.09  2059.75  2087.46  2091.00
                             2120.47  2128.94  2151.42  2154.47  2167.03
                             2185.42  2193.89  2196.12  2202.03  2208.99
                             2214.64  2216.66  2239.26  2518.43  4323.25
                             4365.40  4371.04  4371.46  4379.33  4393.58
                             4440.17  4448.23  4458.68  4462.53  4471.17
                             4471.82  4480.90  4484.69  4487.80  4529.92
                             4588.17  4596.13  4605.77  5096.35

 Zero-point correction=                           0.301289 (Hartree/Particle)
 Thermal correction to Energy=                    0.319978
 Thermal correction to Enthalpy=                  0.320922
 Thermal correction to Gibbs Free Energy=         0.253661
 Sum of electronic and zero-point Energies=          -1088.015573
 Sum of electronic and thermal Energies=             -1087.996884
 Sum of electronic and thermal Enthalpies=           -1087.995940
 Sum of electronic and thermal Free Energies=        -1088.063201

                     E (Thermal)             CV                S
                      KCal/Mol        Cal/Mol-Kelvin    Cal/Mol-Kelvin
 Total                  200.789             66.937            141.562
 Electronic               0.000              0.000              0.000
 Translational            0.889              2.981             42.279
 Rotational               0.889              2.981             32.763
 Vibrational            199.011             60.976             66.519
 Vibration     1          0.594              1.984              5.835
 Vibration     2          0.594              1.982              5.425
 Vibration     3          0.595              1.979              4.926
 Vibration     4          0.597              1.972              4.339
 Vibration     5          0.600              1.964              3.924
 Vibration     6          0.601              1.957              3.693
 Vibration     7          0.606              1.943              3.298
 Vibration     8          0.614              1.915              2.833
 Vibration     9          0.618              1.904              2.690
 Vibration    10          0.623              1.887              2.508
 Vibration    11          0.638              1.839              2.124
 Vibration    12          0.648              1.809              1.951
 Vibration    13          0.650              1.801              1.910
 Vibration    14          0.655              1.788              1.842
 Vibration    15          0.662              1.765              1.742
 Vibration    16          0.666              1.754              1.693
 Vibration    17          0.670              1.741              1.642
 Vibration    18          0.685              1.695              1.483
 Vibration    19          0.703              1.642              1.329
 Vibration    20          0.718              1.600              1.223
 Vibration    21          0.755              1.499              1.014
 Vibration    22          0.762              1.481              0.981
 Vibration    23          0.782              1.429              0.896
 Vibration    24          0.789              1.410              0.866
 Vibration    25          0.811              1.355              0.788
 Vibration    26          0.822              1.330              0.754
 Vibration    27          0.863              1.232              0.638
 Vibration    28          0.892              1.168              0.572
 Vibration    29          0.964              1.020              0.440

 Optimization completed.
    -- Stationary point found.
 Normal termination of Gaussian 09 at Fri Feb 16 22:25:54 2018.
