 Gaussian 09, Revision C.01,
 Gaussian 09:  AM64L-G09RevC.01 23-Sep-2011

 ----------------------------------------------------------------------
 #HF/6-31G* Geom=AllCheck Guess=Read Pop=(MK,ReadRadii) Integral=(Grid=
 UltraFine) iop(6/33=2)
 ----------------------------------------------------------------------

 Structure from the checkpoint file:  frag4-conf1.chk
 ----------------------------
 Optimization for frag4-conf1
 ----------------------------
 Charge =  0 Multiplicity = 1

                         Standard orientation:
 ---------------------------------------------------------------------
 Center     Atomic      Atomic             Coordinates (Angstroms)
 Number     Number       Type             X           Y           Z
 ---------------------------------------------------------------------
      1          6           0        1.460033    0.431811   -0.089263
      2          6           0       -1.278298   -1.362463   -0.167867
      3          6           0       -1.100676    2.276873    0.454058
      4          6           0       -0.337575    2.074837   -0.864856
      5          6           0       -1.865243    0.956848    0.633196
      6          6           0        0.091019    0.604403   -0.802081
      7          6           0       -2.532060   -1.876581    0.518562
      8          6           0        3.163556   -1.228871    0.540671
      9          7           0       -1.008301   -0.035025   -0.040969
     10          7           0        1.934570   -0.838077   -0.124476
     11          8           0        2.042181    1.379128    0.434769
     12          8           0       -0.538422   -2.122602   -0.805388
     13          1           0       -0.380267    2.410615    1.266363
     14          1           0       -1.772590    3.140008    0.441062
     15          1           0       -0.999689    2.229701   -1.724874
     16          1           0        0.525421    2.736036   -0.953081
     17          1           0       -2.018055    0.696747    1.686151
     18          1           0       -2.851819    0.999986    0.150552
     19          1           0        0.147101    0.128388   -1.786531
     20          1           0       -3.429926   -1.357981    0.163006
     21          1           0       -2.476984   -1.730374    1.603662
     22          1           0       -2.622824   -2.942192    0.305595
     23          1           0        3.685053   -0.320564    0.845996
     24          1           0        3.802890   -1.802845   -0.139237
     25          1           0        2.964152   -1.839885    1.430690
     26          1           0        1.309041   -1.549273   -0.500810
 ---------------------------------------------------------------------

 SCF Done:  E(RHF) =  -569.757224118     A.U. after   14 cycles

 The electronic state is 1-A.
 Alpha  occ. eigenvalues --  -20.53520 -20.51578 -15.60305 -15.56951 -11.36625
 Alpha  occ. eigenvalues --  -11.34174 -11.28197 -11.28178 -11.24819 -11.24665
 Alpha  occ. eigenvalues --  -11.23624 -11.23250  -1.38570  -1.36362  -1.26319
 Alpha  occ. eigenvalues --   -1.21120  -1.08030  -1.02700  -0.99734  -0.94290
 Alpha  occ. eigenvalues --   -0.87660  -0.81856  -0.78114  -0.75145  -0.71431
 Alpha  occ. eigenvalues --   -0.69050  -0.65113  -0.63924  -0.63077  -0.61274
 Alpha  occ. eigenvalues --   -0.60332  -0.58919  -0.58592  -0.56646  -0.55906
 Alpha  occ. eigenvalues --   -0.54649  -0.53304  -0.51474  -0.51178  -0.49993
 Alpha  occ. eigenvalues --   -0.49286  -0.48494  -0.42946  -0.42265  -0.37289
 Alpha  occ. eigenvalues --   -0.37033
 Alpha virt. eigenvalues --    0.17358   0.20223   0.21050   0.24261   0.25367
 Alpha virt. eigenvalues --    0.26925   0.28552   0.28848   0.30915   0.31177
 Alpha virt. eigenvalues --    0.31800   0.32700   0.33093   0.33580   0.34503

 Mulliken atomic charges:
              1
     1  C    0.785518
     2  C    0.777890
     3  C   -0.361591
     4  C   -0.335023
     5  C   -0.089177
     6  C   -0.065112
     7  C   -0.587301
     8  C   -0.284293
     9  N   -0.692844
    10  N   -0.824113
    11  O   -0.647562
    12  O   -0.666787
    13  H    0.213743
    14  H    0.179434
    15  H    0.170681
    16  H    0.223496
    17  H    0.184594
    18  H    0.170896
    19  H    0.228413
    20  H    0.191415
    21  H    0.195435
    22  H    0.221566
    23  H    0.218821
    24  H    0.168628
    25  H    0.163105
    26  H    0.460166
 Sum of Mulliken atomic charges =   0.00000

 Dipole moment (field-independent basis, Debye):
    X=             -3.7507    Y=             -0.0156    Z=              0.6417  Tot=              3.8052
 Quadrupole moment (field-independent basis, Debye-Ang):
   XX=            -67.6027   YY=            -77.4901   ZZ=            -72.0130
   XY=             -7.2351   XZ=             -3.3485   YZ=             -5.9996

 Normal termination of Gaussian 09 at Sun Feb 18 17:07:10 2018.
