 Gaussian 09, Revision C.01,
 Gaussian 09:  AM64L-G09RevC.01 23-Sep-2011

 ---------------------------------------------------------
 #B3LYP/6-31G* Integral=(Grid=UltraFine) freq Opt pop=none
 ---------------------------------------------------------

 99/9=1/99;
 ----------------------------
 Optimization for frag4-conf1
 ----------------------------
 Charge =  0 Multiplicity = 1

 SCF Done:  E(RB3LYP) =  -573.258229255     A.U. after   14 cycles
 SCF Done:  E(RB3LYP) =  -573.262044946     A.U. after   13 cycles
 SCF Done:  E(RB3LYP) =  -573.263253337     A.U. after   13 cycles
 SCF Done:  E(RB3LYP) =  -573.264724396     A.U. after   15 cycles
 SCF Done:  E(RB3LYP) =  -573.266671103     A.U. after   15 cycles
 SCF Done:  E(RB3LYP) =  -573.269698352     A.U. after   13 cycles
 SCF Done:  E(RB3LYP) =  -573.270652032     A.U. after   12 cycles
 SCF Done:  E(RB3LYP) =  -573.271183360     A.U. after   13 cycles
 SCF Done:  E(RB3LYP) =  -573.271582654     A.U. after   12 cycles
 SCF Done:  E(RB3LYP) =  -573.271825088     A.U. after   13 cycles
 SCF Done:  E(RB3LYP) =  -573.272178410     A.U. after   13 cycles
 SCF Done:  E(RB3LYP) =  -573.272168266     A.U. after   12 cycles
 SCF Done:  E(RB3LYP) =  -573.272194506     A.U. after   10 cycles
 SCF Done:  E(RB3LYP) =  -573.272205490     A.U. after   10 cycles
 SCF Done:  E(RB3LYP) =  -573.272205406     A.U. after    9 cycles
 SCF Done:  E(RB3LYP) =  -573.272205860     A.U. after    9 cycles
 SCF Done:  E(RB3LYP) =  -573.272205952     A.U. after    7 cycles
 SCF Done:  E(RB3LYP) =  -573.272205955     A.U. after    6 cycles
 SCF Done:  E(RB3LYP) =  -573.272205956     A.U. after    6 cycles
 Optimization completed.
    -- Stationary point found.
 Normal termination of Gaussian 09 at Sat Feb 17 22:05:11 2018.

 --------------------------------------------------------------------
 #N Geom=AllCheck Guess=TCheck SCRF=Check GenChk RB3LYP/6-31G(d) Freq
 --------------------------------------------------------------------

 Structure from the checkpoint file:  frag4-conf1.chk
 ----------------------------
 Optimization for frag4-conf1
 ----------------------------
 Charge =  0 Multiplicity = 1

                         Standard orientation:
 ---------------------------------------------------------------------
 Center     Atomic      Atomic             Coordinates (Angstroms)
 Number     Number       Type             X           Y           Z
 ---------------------------------------------------------------------
      1          6           0        1.460033    0.431811   -0.089263
      2          6           0       -1.278298   -1.362463   -0.167867
      3          6           0       -1.100676    2.276873    0.454058
      4          6           0       -0.337575    2.074837   -0.864856
      5          6           0       -1.865243    0.956848    0.633196
      6          6           0        0.091019    0.604403   -0.802081
      7          6           0       -2.532060   -1.876581    0.518562
      8          6           0        3.163556   -1.228871    0.540671
      9          7           0       -1.008301   -0.035025   -0.040969
     10          7           0        1.934570   -0.838077   -0.124476
     11          8           0        2.042181    1.379128    0.434769
     12          8           0       -0.538422   -2.122602   -0.805388
     13          1           0       -0.380267    2.410615    1.266363
     14          1           0       -1.772590    3.140008    0.441062
     15          1           0       -0.999689    2.229701   -1.724874
     16          1           0        0.525421    2.736036   -0.953081
     17          1           0       -2.018055    0.696747    1.686151
     18          1           0       -2.851819    0.999986    0.150552
     19          1           0        0.147101    0.128388   -1.786531
     20          1           0       -3.429926   -1.357981    0.163006
     21          1           0       -2.476984   -1.730374    1.603662
     22          1           0       -2.622824   -2.942192    0.305595
     23          1           0        3.685053   -0.320564    0.845996
     24          1           0        3.802890   -1.802845   -0.139237
     25          1           0        2.964152   -1.839885    1.430690
     26          1           0        1.309041   -1.549273   -0.500810
 ---------------------------------------------------------------------

 SCF Done:  E(RB3LYP) =  -573.272205956     A.U. after    1 cycles

 Isotropic polarizability for W=    0.000000       98.99 Bohr**3.
 End of Minotr Frequency-dependent properties file   721 does not exist.

                     1                      2                      3
                     A                      A                      A
 Frequencies --    57.0451                63.1830                80.7719
 Red. masses --     6.3031                 1.0402                 2.9469
 Frc consts  --     0.0121                 0.0024                 0.0113
 IR Inten    --     5.3422                 0.0873                 2.4106

                     4                      5                      6
                     A                      A                      A
 Frequencies --   105.6232               124.0480               140.9736
 Red. masses --     2.5687                 1.2586                 3.5163
 Frc consts  --     0.0169                 0.0114                 0.0412
 IR Inten    --     2.0334                 2.7717                 1.8048

                     7                      8                      9
                     A                      A                      A
 Frequencies --   167.0363               185.3184               230.2583
 Red. masses --     2.7548                 3.6913                 3.8183
 Frc consts  --     0.0453                 0.0747                 0.1193
 IR Inten    --     6.3939                 2.9394                 5.6887

                    10                     11                     12
                     A                      A                      A
 Frequencies --   249.5432               312.8710               339.3249
 Red. masses --     2.5281                 4.4462                 2.9630
 Frc consts  --     0.0928                 0.2564                 0.2010
 IR Inten    --     2.6927                 6.9647                 4.1619

                    13                     14                     15
                     A                      A                      A
 Frequencies --   368.2138               448.0808               513.7172
 Red. masses --     4.8084                 3.8335                 4.2754
 Frc consts  --     0.3841                 0.4535                 0.6648
 IR Inten    --    17.6274                15.2850                 9.7375

                    16                     17                     18
                     A                      A                      A
 Frequencies --   581.2681               610.2739               621.0478
 Red. masses --     2.7511                 2.6846                 3.3073
 Frc consts  --     0.5477                 0.5891                 0.7516
 IR Inten    --     0.8189                 5.9057                15.2444

                    19                     20                     21
                     A                      A                      A
 Frequencies --   662.7031               739.6395               757.5737
 Red. masses --     3.5421                 2.6246                 1.3360
 Frc consts  --     0.9165                 0.8460                 0.4518
 IR Inten    --    17.4704                23.9718                80.1744

                    22                     23                     24
                     A                      A                      A
 Frequencies --   852.1730               878.4433               886.6318
 Red. masses --     2.5003                 4.1822                 1.9672
 Frc consts  --     1.0698                 1.9014                 0.9111
 IR Inten    --     3.7089                 3.1212                 3.4596

                    25                     26                     27
                     A                      A                      A
 Frequencies --   927.6130               936.4072               963.1369
 Red. masses --     1.9766                 2.0880                 2.5486
 Frc consts  --     1.0021                 1.0787                 1.3929
 IR Inten    --     3.4978                 3.1016                 8.8384

                    28                     29                     30
                     A                      A                      A
 Frequencies --  1006.7344              1038.0008              1063.7460
 Red. masses --     1.9918                 2.3344                 1.7237
 Frc consts  --     1.1894                 1.4819                 1.1492
 IR Inten    --     4.6493                 2.6285                 5.3571

                    31                     32                     33
                     A                      A                      A
 Frequencies --  1086.3421              1093.8126              1128.1931
 Red. masses --     2.1692                 1.9078                 1.8333
 Frc consts  --     1.5083                 1.3448                 1.3748
 IR Inten    --     4.7967                 4.9919                 2.0293

                    34                     35                     36
                     A                      A                      A
 Frequencies --  1159.5154              1184.8518              1188.8429
 Red. masses --     1.2877                 2.0821                 1.6097
 Frc consts  --     1.0200                 1.7222                 1.3404
 IR Inten    --     4.1853                26.0440                38.6659

                    37                     38                     39
                     A                      A                      A
 Frequencies --  1214.6815              1223.9494              1274.8827
 Red. masses --     1.9955                 1.5897                 1.7951
 Frc consts  --     1.7347                 1.4031                 1.7190
 IR Inten    --    16.3001                 7.3472                24.6963

                    40                     41                     42
                     A                      A                      A
 Frequencies --  1282.8587              1328.3354              1354.3369
 Red. masses --     1.2775                 1.4359                 1.5435
 Frc consts  --     1.2387                 1.4928                 1.6681
 IR Inten    --    11.4491                10.8563                 3.2256

                    43                     44                     45
                     A                      A                      A
 Frequencies --  1366.7521              1383.1887              1386.8629
 Red. masses --     1.3677                 1.4180                 1.4862
 Frc consts  --     1.5053                 1.5984                 1.6842
 IR Inten    --     2.3005                 5.7442                 4.3481

                    46                     47                     48
                     A                      A                      A
 Frequencies --  1408.9229              1453.1496              1459.7510
 Red. masses --     1.4250                 4.1236                 1.1809
 Frc consts  --     1.6667                 5.1304                 1.4826
 IR Inten    --    35.4738               256.9578                23.8144

                    49                     50                     51
                     A                      A                      A
 Frequencies --  1498.1508              1506.2012              1513.3848
 Red. masses --     1.0926                 1.0964                 1.0479
 Frc consts  --     1.4449                 1.4655                 1.4141
 IR Inten    --    11.4664                 8.3866                10.7071

                    52                     53                     54
                     A                      A                      A
 Frequencies --  1524.9090              1526.9639              1531.3644
 Red. masses --     1.0778                 1.0892                 1.0634
 Frc consts  --     1.4767                 1.4963                 1.4693
 IR Inten    --    37.6834                 6.8751                12.6100

                    55                     56                     57
                     A                      A                      A
 Frequencies --  1549.2355              1618.8256              1722.9531
 Red. masses --     1.0966                 1.6776                 8.6573
 Frc consts  --     1.5507                 2.5902                15.1420
 IR Inten    --     1.0245               203.8936               204.3280

                    58                     59                     60
                     A                      A                      A
 Frequencies --  1777.4651              3025.9080              3041.5082
 Red. masses --     8.4789                 1.0675                 1.0407
 Frc consts  --    15.7831                 5.7585                 5.6722
 IR Inten    --   291.3201                46.0946                65.0486

                    61                     62                     63
                     A                      A                      A
 Frequencies --  3057.2509              3066.1304              3082.5866
 Red. masses --     1.0393                 1.0716                 1.0811
 Frc consts  --     5.7231                 5.9357                 6.0527
 IR Inten    --     6.2040                21.1053                13.4820

                    64                     65                     66
                     A                      A                      A
 Frequencies --  3087.1615              3091.3111              3096.6692
 Red. masses --     1.0839                 1.0761                 1.1010
 Frc consts  --     6.0865                 6.0590                 6.2205
 IR Inten    --    18.1031                32.0442                37.1372

                    67                     68                     69
                     A                      A                      A
 Frequencies --  3115.6527              3135.4668              3160.3180
 Red. masses --     1.1006                 1.1064                 1.0968
 Frc consts  --     6.2949                 6.4089                 6.4544
 IR Inten    --    10.9818                26.1825                 5.0535

                    70                     71                     72
                     A                      A                      A
 Frequencies --  3171.8600              3178.0833              3481.4827
 Red. masses --     1.0986                 1.1004                 1.0812
 Frc consts  --     6.5121                 6.5484                 7.7209
 IR Inten    --     3.6713                 6.7029               192.0859

 - Thermochemistry -
 -------------------
 Temperature   298.150 Kelvin.  Pressure   1.00000 Atm.
 Atom     1 has atomic number  6 and mass  12.00000

 Molecular mass:   170.10553 amu.
 Principal axes and moments of inertia in atomic units:
                           1         2         3
     Eigenvalues --  1573.762342076.834243206.46620
           X            0.99726  -0.07367  -0.00682
           Y            0.07352   0.99708  -0.02065
           Z            0.00832   0.02009   0.99976
 This molecule is an asymmetric top.
 Rotational symmetry number  1.
 Warning -- assumption of classical behavior for rotation
           may cause significant error
 Rotational temperatures (Kelvin)      0.05504     0.04170     0.02701
 Rotational constants (GHZ):           1.14677     0.86899     0.56284
 Zero-point vibrational energy     588870.6 (Joules/Mol)
                                  140.74345 (Kcal/Mol)
 Warning -- explicit consideration of  17 degrees of freedom as
           vibrations may cause significant error
 Vibrational temperatures:     82.08    90.91   116.21   151.97   178.48
          (Kelvin)            202.83   240.33   266.63   331.29   359.04
                              450.15   488.21   529.78   644.69   739.12
                              836.31   878.05   893.55   953.48  1064.17
                             1089.98  1226.09  1263.88  1275.66  1334.63
                             1347.28  1385.74  1448.46  1493.45  1530.49
                             1563.00  1573.75  1623.22  1668.28  1704.74
                             1710.48  1747.65  1760.99  1834.27  1845.75
                             1911.18  1948.59  1966.45  1990.10  1995.38
                             2027.12  2090.76  2100.25  2155.50  2167.08
                             2177.42  2194.00  2196.96  2203.29  2229.00
                             2329.13  2478.94  2557.37  4353.60  4376.05
                             4398.70  4411.47  4435.15  4441.73  4447.70
                             4455.41  4482.72  4511.23  4546.99  4563.59
                             4572.55  5009.07

 Zero-point correction=                           0.224289 (Hartree/Particle)
 Thermal correction to Energy=                    0.236884
 Thermal correction to Enthalpy=                  0.237828
 Thermal correction to Gibbs Free Energy=         0.184911
 Sum of electronic and zero-point Energies=           -573.047917
 Sum of electronic and thermal Energies=              -573.035322
 Sum of electronic and thermal Enthalpies=            -573.034378
 Sum of electronic and thermal Free Energies=         -573.087295

                     E (Thermal)             CV                S
                      KCal/Mol        Cal/Mol-Kelvin    Cal/Mol-Kelvin
 Total                  148.647             45.421            111.374
 Electronic               0.000              0.000              0.000
 Translational            0.889              2.981             41.302
 Rotational               0.889              2.981             30.728
 Vibrational            146.869             39.459             39.344
 Vibration     1          0.596              1.975              4.557
 Vibration     2          0.597              1.972              4.355
 Vibration     3          0.600              1.962              3.872
 Vibration     4          0.605              1.945              3.348
 Vibration     5          0.610              1.929              3.036
 Vibration     6          0.615              1.912              2.791
 Vibration     7          0.624              1.883              2.469
 Vibration     8          0.631              1.860              2.274
 Vibration     9          0.652              1.795              1.877
 Vibration    10          0.662              1.764              1.734
 Vibration    11          0.701              1.649              1.347
 Vibration    12          0.719              1.597              1.215
 Vibration    13          0.741              1.538              1.087
 Vibration    14          0.807              1.365              0.802
 Vibration    15          0.869              1.220              0.625
 Vibration    16          0.938              1.072              0.483
 Vibration    17          0.969              1.010              0.432

 Optimization completed.
    -- Stationary point found.
 Normal termination of Gaussian 09 at Sat Feb 17 22:22:38 2018.
