 Gaussian 09, Revision C.01,
 Gaussian 09:  AM64L-G09RevC.01 23-Sep-2011

 ---------------------------------------------------------
 #B3LYP/6-31G* Integral=(Grid=UltraFine) freq Opt pop=none
 ---------------------------------------------------------

 99/9=1/99;
 -----------------------------
 Optimization for frag39-conf1
 -----------------------------
 Charge =  0 Multiplicity = 1

 SCF Done:  E(RB3LYP) =  -327.152176082     A.U. after   14 cycles
 SCF Done:  E(RB3LYP) =  -327.153697088     A.U. after   12 cycles
 SCF Done:  E(RB3LYP) =  -327.153852342     A.U. after   10 cycles
 SCF Done:  E(RB3LYP) =  -327.153894293     A.U. after   10 cycles
 SCF Done:  E(RB3LYP) =  -327.153969757     A.U. after   11 cycles
 SCF Done:  E(RB3LYP) =  -327.154020968     A.U. after   11 cycles
 SCF Done:  E(RB3LYP) =  -327.154070971     A.U. after   10 cycles
 SCF Done:  E(RB3LYP) =  -327.154104129     A.U. after   10 cycles
 SCF Done:  E(RB3LYP) =  -327.154118300     A.U. after   10 cycles
 SCF Done:  E(RB3LYP) =  -327.154139755     A.U. after   10 cycles
 SCF Done:  E(RB3LYP) =  -327.154168097     A.U. after   11 cycles
 SCF Done:  E(RB3LYP) =  -327.154169064     A.U. after    8 cycles
 SCF Done:  E(RB3LYP) =  -327.154169563     A.U. after    8 cycles
 SCF Done:  E(RB3LYP) =  -327.154170523     A.U. after    9 cycles
 SCF Done:  E(RB3LYP) =  -327.154172589     A.U. after   10 cycles
 SCF Done:  E(RB3LYP) =  -327.154172934     A.U. after    9 cycles
 SCF Done:  E(RB3LYP) =  -327.154172963     A.U. after    6 cycles
 Optimization completed.
    -- Stationary point found.
 Normal termination of Gaussian 09 at Fri Feb 16 20:37:11 2018.

 --------------------------------------------------------------------
 #N Geom=AllCheck Guess=TCheck SCRF=Check GenChk RB3LYP/6-31G(d) Freq
 --------------------------------------------------------------------

 Structure from the checkpoint file:  frag39-conf1.chk
 -----------------------------
 Optimization for frag39-conf1
 -----------------------------
 Charge =  0 Multiplicity = 1

                         Standard orientation:
 ---------------------------------------------------------------------
 Center     Atomic      Atomic             Coordinates (Angstroms)
 Number     Number       Type             X           Y           Z
 ---------------------------------------------------------------------
      1          6           0        1.507669    0.194053   -0.042119
      2          6           0        2.840660   -0.422733    0.360867
      3          6           0       -3.194910    0.217634    0.161024
      4          6           0       -1.779245   -0.227874    0.539720
      5          6           0       -0.839164   -0.271153   -0.673022
      6          7           0        0.514896   -0.697973   -0.347133
      7          8           0        1.348066    1.407501   -0.097368
      8          1           0        2.862412   -1.515627    0.298381
      9          1           0        3.624566   -0.014352   -0.283695
     10          1           0        3.074183   -0.121948    1.387304
     11          1           0       -3.188384    1.220857   -0.281602
     12          1           0       -3.647267   -0.464862   -0.569459
     13          1           0       -3.849491    0.245607    1.038804
     14          1           0       -1.813765   -1.220868    1.009913
     15          1           0       -1.352987    0.458251    1.281512
     16          1           0       -1.239816   -0.944744   -1.441453
     17          1           0       -0.752796    0.725922   -1.113088
     18          1           0        0.684486   -1.681993   -0.196556
 ---------------------------------------------------------------------

 SCF Done:  E(RB3LYP) =  -327.154172963     A.U. after    1 cycles

 Isotropic polarizability for W=    0.000000       62.79 Bohr**3.
 End of Minotr Frequency-dependent properties file   721 does not exist.

                     1                      2                      3
                     A                      A                      A
 Frequencies --    28.5075                51.2911                87.8966
 Red. masses --     2.7965                 1.2314                 2.1129
 Frc consts  --     0.0013                 0.0019                 0.0096
 IR Inten    --     3.3917                 4.1576                 1.8950

                     4                      5                      6
                     A                      A                      A
 Frequencies --    94.6191               235.5062               281.9868
 Red. masses --     2.3316                 1.1278                 2.6326
 Frc consts  --     0.0123                 0.0369                 0.1233
 IR Inten    --     2.4116                 0.3047                 4.3430

                     7                      8                      9
                     A                      A                      A
 Frequencies --   297.5532               359.6386               427.5287
 Red. masses --     2.7312                 3.3105                 1.2314
 Frc consts  --     0.1425                 0.2523                 0.1326
 IR Inten    --     4.2578                 1.9091                93.8842

                    10                     11                     12
                     A                      A                      A
 Frequencies --   497.1028               618.7192               648.1226
 Red. masses --     3.4359                 2.9272                 2.6440
 Frc consts  --     0.5002                 0.6602                 0.6544
 IR Inten    --    14.8083                 0.7371                 0.9346

                    13                     14                     15
                     A                      A                      A
 Frequencies --   752.2195               851.2187               900.0426
 Red. masses --     1.1474                 1.6462                 1.8416
 Frc consts  --     0.3825                 0.7028                 0.8790
 IR Inten    --     4.9477                 1.0332                 6.7242

                    16                     17                     18
                     A                      A                      A
 Frequencies --   947.2989              1004.5419              1045.4599
 Red. masses --     1.7259                 1.8347                 2.7658
 Frc consts  --     0.9125                 1.0908                 1.7811
 IR Inten    --     1.9440                 7.9907                 0.3288

                    19                     20                     21
                     A                      A                      A
 Frequencies --  1066.5542              1113.8629              1136.7657
 Red. masses --     1.6973                 2.7281                 2.1799
 Frc consts  --     1.1376                 1.9942                 1.6597
 IR Inten    --     7.8681                 5.1261                 4.1126

                    22                     23                     24
                     A                      A                      A
 Frequencies --  1192.2745              1274.0337              1301.7968
 Red. masses --     1.8741                 1.6694                 1.4255
 Frc consts  --     1.5696                 1.5965                 1.4233
 IR Inten    --     6.8091                68.8282                72.4622

                    25                     26                     27
                     A                      A                      A
 Frequencies --  1349.0980              1356.6306              1423.4359
 Red. masses --     1.3392                 1.0965                 1.2863
 Frc consts  --     1.4361                 1.1890                 1.5356
 IR Inten    --     1.8984                16.9738                21.2081

                    28                     29                     30
                     A                      A                      A
 Frequencies --  1429.9623              1441.4945              1500.6821
 Red. masses --     1.3809                 1.2324                 1.0637
 Frc consts  --     1.6636                 1.5088                 1.4114
 IR Inten    --     5.0494                 0.5436                12.8936

                    31                     32                     33
                     A                      A                      A
 Frequencies --  1502.3907              1516.5461              1521.3077
 Red. masses --     1.0719                 1.0674                 1.0612
 Frc consts  --     1.4255                 1.4465                 1.4470
 IR Inten    --     3.9267                17.4190                 0.1451

                    34                     35                     36
                     A                      A                      A
 Frequencies --  1530.0936              1538.0277              1562.3407
 Red. masses --     1.0467                 1.0782                 1.8918
 Frc consts  --     1.4438                 1.5028                 2.7206
 IR Inten    --    11.5505                 5.6589               200.6061

                    37                     38                     39
                     A                      A                      A
 Frequencies --  1786.0266              3033.5759              3043.3386
 Red. masses --     9.0324                 1.0656                 1.0385
 Frc consts  --    16.9757                 5.7774                 5.6668
 IR Inten    --   218.5269                27.5263                17.9060

                    40                     41                     42
                     A                      A                      A
 Frequencies --  3049.9663              3062.2132              3081.2772
 Red. masses --     1.0684                 1.0360                 1.0945
 Frc consts  --     5.8555                 5.7238                 6.1227
 IR Inten    --    48.8145                10.1087                10.9940

                    43                     44                     45
                     A                      A                      A
 Frequencies --  3108.7857              3118.1320              3132.0148
 Red. masses --     1.1012                 1.1018                 1.0986
 Frc consts  --     6.2703                 6.3115                 6.3492
 IR Inten    --    45.4419                34.0396                11.7011

                    46                     47                     48
                     A                      A                      A
 Frequencies --  3134.8980              3142.8431              3626.5789
 Red. masses --     1.1027                 1.1015                 1.0775
 Frc consts  --     6.3851                 6.4104                 8.3495
 IR Inten    --    22.5658                10.9259                14.0080

 - Thermochemistry -
 -------------------
 Temperature   298.150 Kelvin.  Pressure   1.00000 Atm.
 Atom     1 has atomic number  6 and mass  12.00000

 Molecular mass:   101.08406 amu.
 Principal axes and moments of inertia in atomic units:
                           1         2         3
     Eigenvalues --   269.142221518.839021628.63859
           X            0.99981  -0.01880   0.00518
           Y            0.01885   0.99978  -0.00884
           Z           -0.00502   0.00894   0.99995
 This molecule is an asymmetric top.
 Rotational symmetry number  1.
 Rotational temperatures (Kelvin)      0.32181     0.05703     0.05318
 Rotational constants (GHZ):           6.70553     1.18824     1.10813
 Zero-point vibrational energy     419926.3 (Joules/Mol)
                                  100.36480 (Kcal/Mol)
 Warning -- explicit consideration of  11 degrees of freedom as
           vibrations may cause significant error
 Vibrational temperatures:     41.02    73.80   126.46   136.14   338.84
          (Kelvin)            405.72   428.11   517.44   615.12   715.22
                              890.20   932.50  1082.27  1224.71  1294.96
                             1362.95  1445.31  1504.18  1534.53  1602.60
                             1635.55  1715.41  1833.05  1872.99  1941.05
                             1951.89  2048.00  2057.39  2073.99  2159.14
                             2161.60  2181.97  2188.82  2201.46  2212.88
                             2247.86  2569.69  4364.63  4378.68  4388.22
                             4405.84  4433.27  4472.84  4486.29  4506.27
                             4510.41  4521.84  5217.83

 Zero-point correction=                           0.159941 (Hartree/Particle)
 Thermal correction to Energy=                    0.169018
 Thermal correction to Enthalpy=                  0.169963
 Thermal correction to Gibbs Free Energy=         0.124711
 Sum of electronic and zero-point Energies=           -326.994231
 Sum of electronic and thermal Energies=              -326.985154
 Sum of electronic and thermal Enthalpies=            -326.984210
 Sum of electronic and thermal Free Energies=         -327.029462

                     E (Thermal)             CV                S
                      KCal/Mol        Cal/Mol-Kelvin    Cal/Mol-Kelvin
 Total                  106.061             30.485             95.240
 Electronic               0.000              0.000              0.000
 Translational            0.889              2.981             39.750
 Rotational               0.889              2.981             27.989
 Vibrational            104.283             24.524             27.501
 Vibration     1          0.593              1.984              5.931
 Vibration     2          0.596              1.977              4.767
 Vibration     3          0.601              1.958              3.706
 Vibration     4          0.603              1.953              3.562
 Vibration     5          0.655              1.786              1.837
 Vibration     6          0.681              1.707              1.522
 Vibration     7          0.691              1.678              1.431
 Vibration     8          0.734              1.555              1.124
 Vibration     9          0.789              1.410              0.867
 Vibration    10          0.853              1.256              0.665
 Vibration    11          0.979              0.992              0.419

 Optimization completed.
    -- Stationary point found.
 Normal termination of Gaussian 09 at Fri Feb 16 20:43:31 2018.
