 Gaussian 09, Revision C.01,
 Gaussian 09:  AM64L-G09RevC.01 23-Sep-2011

 ----------------------------------------------------------------------
 #HF/6-31G* Geom=AllCheck Guess=Read Pop=(MK,ReadRadii) Integral=(Grid=
 UltraFine) iop(6/33=2)
 ----------------------------------------------------------------------

 Structure from the checkpoint file:  frag39-conf1.chk
 -----------------------------
 Optimization for frag39-conf1
 -----------------------------
 Charge =  0 Multiplicity = 1

                         Standard orientation:
 ---------------------------------------------------------------------
 Center     Atomic      Atomic             Coordinates (Angstroms)
 Number     Number       Type             X           Y           Z
 ---------------------------------------------------------------------
      1          6           0        1.507669    0.194053   -0.042119
      2          6           0        2.840660   -0.422733    0.360867
      3          6           0       -3.194910    0.217634    0.161024
      4          6           0       -1.779245   -0.227874    0.539720
      5          6           0       -0.839164   -0.271153   -0.673022
      6          7           0        0.514896   -0.697973   -0.347133
      7          8           0        1.348066    1.407501   -0.097368
      8          1           0        2.862412   -1.515627    0.298381
      9          1           0        3.624566   -0.014352   -0.283695
     10          1           0        3.074183   -0.121948    1.387304
     11          1           0       -3.188384    1.220857   -0.281602
     12          1           0       -3.647267   -0.464862   -0.569459
     13          1           0       -3.849491    0.245607    1.038804
     14          1           0       -1.813765   -1.220868    1.009913
     15          1           0       -1.352987    0.458251    1.281512
     16          1           0       -1.239816   -0.944744   -1.441453
     17          1           0       -0.752796    0.725922   -1.113088
     18          1           0        0.684486   -1.681993   -0.196556
 ---------------------------------------------------------------------

 SCF Done:  E(RHF) =  -325.076218489     A.U. after   13 cycles

 The electronic state is 1-A.
 Alpha  occ. eigenvalues --  -20.51544 -15.58575 -11.35012 -11.26005 -11.23729
 Alpha  occ. eigenvalues --  -11.22431 -11.21847  -1.36752  -1.22302  -1.05490
 Alpha  occ. eigenvalues --   -0.99950  -0.91856  -0.81743  -0.78094  -0.68694
 Alpha  occ. eigenvalues --   -0.64968  -0.62332  -0.61203  -0.58031  -0.57191
 Alpha  occ. eigenvalues --   -0.55958  -0.53311  -0.52383  -0.49960  -0.48297
 Alpha  occ. eigenvalues --   -0.47456  -0.41177  -0.37972
 Alpha virt. eigenvalues --    0.20009   0.21371   0.23824   0.26847   0.29235
 Alpha virt. eigenvalues --    0.29513   0.29728   0.32009   0.32820   0.33471
 Alpha virt. eigenvalues --    0.34171   0.34799   0.39895   0.41032   0.42495

 Mulliken atomic charges:
              1
     1  C    0.758770
     2  C   -0.576688
     3  C   -0.490628
     4  C   -0.305312
     5  C   -0.105301
     6  N   -0.806492
     7  O   -0.626810
     8  H    0.164079
     9  H    0.209184
    10  H    0.205172
    11  H    0.167021
    12  H    0.154427
    13  H    0.167576
    14  H    0.144594
    15  H    0.180479
    16  H    0.163762
    17  H    0.217090
    18  H    0.379078
 Sum of Mulliken atomic charges =   0.00000

 Dipole moment (field-independent basis, Debye):
    X=             -0.2961    Y=             -3.8818    Z=              0.2795  Tot=              3.9031
 Quadrupole moment (field-independent basis, Debye-Ang):
   XX=            -40.9773   YY=            -46.9310   ZZ=            -44.2644
   XY=             -5.0338   XZ=              1.2448   YZ=              0.2728

 Normal termination of Gaussian 09 at Sat Feb 17 21:02:30 2018.
