 Gaussian 09, Revision C.01,
 Gaussian 09:  AM64L-G09RevC.01 23-Sep-2011

 ---------------------------------------------------------
 #B3LYP/6-31G* Integral=(Grid=UltraFine) freq Opt pop=none
 ---------------------------------------------------------

 99/9=1/99;
 -----------------------------
 Optimization for frag35-conf2
 -----------------------------
 Charge =  0 Multiplicity = 1

 SCF Done:  E(RB3LYP) =  -1178.36688105     A.U. after   15 cycles
 SCF Done:  E(RB3LYP) =  -1178.37393419     A.U. after   13 cycles
 SCF Done:  E(RB3LYP) =  -1178.37363830     A.U. after   14 cycles
 SCF Done:  E(RB3LYP) =  -1178.37478306     A.U. after   13 cycles
 SCF Done:  E(RB3LYP) =  -1178.37539496     A.U. after   14 cycles
 SCF Done:  E(RB3LYP) =  -1178.37581679     A.U. after   15 cycles
 SCF Done:  E(RB3LYP) =  -1178.37749788     A.U. after   14 cycles
 SCF Done:  E(RB3LYP) =  -1178.37895655     A.U. after   15 cycles
 SCF Done:  E(RB3LYP) =  -1178.38013416     A.U. after   14 cycles
 SCF Done:  E(RB3LYP) =  -1178.38272153     A.U. after   16 cycles
 SCF Done:  E(RB3LYP) =  -1178.38801304     A.U. after   12 cycles
 SCF Done:  E(RB3LYP) =  -1178.38809907     A.U. after   11 cycles
 SCF Done:  E(RB3LYP) =  -1178.38810973     A.U. after   10 cycles
 SCF Done:  E(RB3LYP) =  -1178.38811292     A.U. after    9 cycles
 SCF Done:  E(RB3LYP) =  -1178.38811429     A.U. after    9 cycles
 SCF Done:  E(RB3LYP) =  -1178.38811625     A.U. after   10 cycles
 SCF Done:  E(RB3LYP) =  -1178.38811723     A.U. after    9 cycles
 SCF Done:  E(RB3LYP) =  -1178.38811741     A.U. after    8 cycles
 SCF Done:  E(RB3LYP) =  -1178.38811746     A.U. after    7 cycles
 Optimization completed.
    -- Stationary point found.
 Normal termination of Gaussian 09 at Fri Feb 16 23:16:33 2018.

 --------------------------------------------------------------------
 #N Geom=AllCheck Guess=TCheck SCRF=Check GenChk RB3LYP/6-31G(d) Freq
 --------------------------------------------------------------------

 Structure from the checkpoint file:  frag35-conf2.chk
 -----------------------------
 Optimization for frag35-conf2
 -----------------------------
 Charge =  0 Multiplicity = 1

                         Standard orientation:
 ---------------------------------------------------------------------
 Center     Atomic      Atomic             Coordinates (Angstroms)
 Number     Number       Type             X           Y           Z
 ---------------------------------------------------------------------
      1          6           0        1.880907   -1.377382    0.202143
      2          6           0        0.625183    1.362614   -0.632617
      3          6           0        4.067322   -2.511475   -0.035222
      4          6           0        1.882896    3.424310   -0.436991
      5          6           0        1.355848    2.155237    1.629626
      6          6           0       -3.706147    0.547637    1.044227
      7          6           0        0.521838   -1.156607   -0.453955
      8          6           0       -0.133519    0.167607   -0.013771
      9          7           0        2.754193   -2.128968   -0.523966
     10          7           0       -1.502879    0.338394   -0.532447
     11          7           0        1.275484    2.245195    0.172254
     12          8           0        2.149360   -0.934972    1.319158
     13          8           0        0.582643    1.471737   -1.861256
     14          8           0       -2.278392   -1.661569    0.896127
     15          8           0       -3.603871   -0.913688   -1.163843
     16         16           0       -2.783333   -0.604496    0.010716
     17          1           0        4.189673   -2.066010    0.952681
     18          1           0        4.857544   -2.140559   -0.698176
     19          1           0        4.157379   -3.600960    0.048493
     20          1           0        1.430200    4.337781   -0.030541
     21          1           0        1.718816    3.383356   -1.512489
     22          1           0        2.959560    3.447820   -0.229230
     23          1           0        1.447624    1.117610    1.949925
     24          1           0        0.495515    2.636466    2.115281
     25          1           0        2.260676    2.678697    1.952062
     26          1           0       -4.565606    0.004699    1.444389
     27          1           0       -3.061956    0.886863    1.857519
     28          1           0       -4.032951    1.386894    0.428706
     29          1           0       -0.136419   -1.976366   -0.146324
     30          1           0        0.597950   -1.167110   -1.547039
     31          1           0       -0.176014    0.199641    1.072747
     32          1           0        2.465461   -2.449449   -1.437115
     33          1           0       -1.525583    0.446508   -1.545352
 ---------------------------------------------------------------------

 SCF Done:  E(RB3LYP) =  -1178.38811746     A.U. after    1 cycles

 Isotropic polarizability for W=    0.000000      132.47 Bohr**3.
 End of Minotr Frequency-dependent properties file   721 does not exist.

                     1                      2                      3
                     A                      A                      A
 Frequencies --    18.7926                22.3363                37.0164
 Red. masses --     5.2681                 3.9750                 4.2842
 Frc consts  --     0.0011                 0.0012                 0.0035
 IR Inten    --     4.7125                 5.2565                 0.4690

                     4                      5                      6
                     A                      A                      A
 Frequencies --    51.2667                71.0306                72.5464
 Red. masses --     4.1088                 1.3063                 2.1017
 Frc consts  --     0.0064                 0.0039                 0.0065
 IR Inten    --     2.8349                 0.5414                 0.8391

                     7                      8                      9
                     A                      A                      A
 Frequencies --    90.1679               112.5937               129.6613
 Red. masses --     3.9250                 2.1495                 1.8558
 Frc consts  --     0.0188                 0.0161                 0.0184
 IR Inten    --     6.9419                 2.6968                 0.2036

                    10                     11                     12
                     A                      A                      A
 Frequencies --   143.1195               146.1749               170.5583
 Red. masses --     1.5950                 3.2501                 3.0562
 Frc consts  --     0.0192                 0.0409                 0.0524
 IR Inten    --     2.2993                 0.5294                12.1089

                    13                     14                     15
                     A                      A                      A
 Frequencies --   211.5077               215.3808               224.5941
 Red. masses --     4.0040                 3.2418                 1.1359
 Frc consts  --     0.1055                 0.0886                 0.0338
 IR Inten    --     1.3658                 3.7909                 1.3065

                    16                     17                     18
                     A                      A                      A
 Frequencies --   242.2013               260.6131               283.7342
 Red. masses --     3.2297                 4.0112                 2.8070
 Frc consts  --     0.1116                 0.1605                 0.1331
 IR Inten    --     1.8021                 5.2409                 5.8441

                    19                     20                     21
                     A                      A                      A
 Frequencies --   314.4201               331.1073               354.0163
 Red. masses --     3.8044                 4.1629                 3.8889
 Frc consts  --     0.2216                 0.2689                 0.2872
 IR Inten    --     5.6585                20.3813                 6.5968

                    22                     23                     24
                     A                      A                      A
 Frequencies --   388.9472               432.2954               440.6938
 Red. masses --     4.1195                 3.0141                 2.9510
 Frc consts  --     0.3672                 0.3319                 0.3377
 IR Inten    --    26.2153                 3.3783                14.8422

                    25                     26                     27
                     A                      A                      A
 Frequencies --   467.9652               481.0463               495.4126
 Red. masses --     1.7010                 3.9098                 4.5875
 Frc consts  --     0.2195                 0.5331                 0.6634
 IR Inten    --    65.3006                70.1920                36.3015

                    28                     29                     30
                     A                      A                      A
 Frequencies --   530.1686               607.3791               620.6497
 Red. masses --     3.5954                 2.6459                 2.0419
 Frc consts  --     0.5954                 0.5751                 0.4634
 IR Inten    --    20.3726                 1.5735               105.6338

                    31                     32                     33
                     A                      A                      A
 Frequencies --   643.1104               719.9141               729.2218
 Red. masses --     3.4683                 4.1812                 3.6670
 Frc consts  --     0.8452                 1.2768                 1.1489
 IR Inten    --    10.5589                17.1521                 0.6893

                    34                     35                     36
                     A                      A                      A
 Frequencies --   763.6533               779.8744               901.5465
 Red. masses --     4.7990                 4.1838                 3.1345
 Frc consts  --     1.6489                 1.4992                 1.5011
 IR Inten    --     8.3556                44.7758                59.6262

                    37                     38                     39
                     A                      A                      A
 Frequencies --   928.6028               954.4503               995.4434
 Red. masses --     3.4275                 3.4017                 1.3839
 Frc consts  --     1.7413                 1.8258                 0.8080
 IR Inten    --    82.6443                11.6838                 0.3727

                    40                     41                     42
                     A                      A                      A
 Frequencies --  1000.3731              1017.2694              1039.4197
 Red. masses --     1.4557                 2.2980                 3.7328
 Frc consts  --     0.8583                 1.4011                 2.3761
 IR Inten    --    57.8824                16.9962                14.7832

                    43                     44                     45
                     A                      A                      A
 Frequencies --  1092.9199              1094.7182              1109.6169
 Red. masses --     1.6670                 3.0999                 3.6376
 Frc consts  --     1.1732                 2.1888                 2.6388
 IR Inten    --    21.8766                99.3808                49.5954

                    46                     47                     48
                     A                      A                      A
 Frequencies --  1129.1006              1139.8946              1160.6967
 Red. masses --     7.8639                 1.2510                 1.2787
 Frc consts  --     5.9069                 0.9577                 1.0150
 IR Inten    --   124.6821                11.4061                 3.5361

                    49                     50                     51
                     A                      A                      A
 Frequencies --  1169.9649              1180.6597              1183.3198
 Red. masses --     1.6042                 1.6899                 1.3758
 Frc consts  --     1.2937                 1.3879                 1.1351
 IR Inten    --    61.1695                50.6135                 4.5269

                    52                     53                     54
                     A                      A                      A
 Frequencies --  1214.0959              1266.0509              1287.5098
 Red. masses --     1.3992                 1.5276                 3.2630
 Frc consts  --     1.2152                 1.4427                 3.1869
 IR Inten    --    40.9398                25.3192                13.7013

                    55                     56                     57
                     A                      A                      A
 Frequencies --  1293.4153              1329.5433              1354.3098
 Red. masses --     1.8885                 2.7562                 1.8272
 Frc consts  --     1.8614                 2.8705                 1.9746
 IR Inten    --    78.2337               174.5064                31.5575

                    58                     59                     60
                     A                      A                      A
 Frequencies --  1381.5060              1401.6442              1429.7371
 Red. masses --     1.2192                 1.4807                 1.5364
 Frc consts  --     1.3710                 1.7140                 1.8504
 IR Inten    --     6.1414                20.8107               187.6047

                    61                     62                     63
                     A                      A                      A
 Frequencies --  1451.1711              1459.6316              1470.1936
 Red. masses --     1.1905                 1.1807                 1.7814
 Frc consts  --     1.4771                 1.4821                 2.2686
 IR Inten    --    12.0956                18.2325                27.7765

                    64                     65                     66
                     A                      A                      A
 Frequencies --  1484.2497              1487.1384              1490.6498
 Red. masses --     1.0517                 1.0633                 1.1085
 Frc consts  --     1.3651                 1.3855                 1.4512
 IR Inten    --     5.6289                 2.4968                15.2057

                    67                     68                     69
                     A                      A                      A
 Frequencies --  1498.1941              1521.7894              1524.1169
 Red. masses --     1.1910                 1.1746                 1.0478
 Frc consts  --     1.5750                 1.6028                 1.4341
 IR Inten    --    35.9152                65.0316                10.4519

                    70                     71                     72
                     A                      A                      A
 Frequencies --  1529.5879              1533.7399              1550.4133
 Red. masses --     1.0446                 1.0515                 1.0525
 Frc consts  --     1.4400                 1.4573                 1.4906
 IR Inten    --     6.9679                 9.6147                24.5248

                    73                     74                     75
                     A                      A                      A
 Frequencies --  1558.3252              1589.2277              1736.3855
 Red. masses --     1.3073                 1.7340                 8.3476
 Frc consts  --     1.8705                 2.5803                14.8288
 IR Inten    --    32.2832               172.0583               177.0125

                    76                     77                     78
                     A                      A                      A
 Frequencies --  1763.9423              3031.1582              3042.0134
 Red. masses --     8.4993                 1.0468                 1.0405
 Frc consts  --    15.5812                 5.6666                 5.6732
 IR Inten    --   310.9406                47.7209                70.2644

                    79                     80                     81
                     A                      A                      A
 Frequencies --  3049.5147              3069.2590              3086.5179
 Red. masses --     1.0369                 1.0593                 1.0294
 Frc consts  --     5.6816                 5.8793                 5.7782
 IR Inten    --    63.1106                 7.6918                 0.6503

                    82                     83                     84
                     A                      A                      A
 Frequencies --  3091.6182              3101.9715              3113.4223
 Red. masses --     1.1046                 1.1061                 1.0918
 Frc consts  --     6.2203                 6.2706                 6.2354
 IR Inten    --    32.6267                30.6414                22.4675

                    85                     86                     87
                     A                      A                      A
 Frequencies --  3119.6213              3169.0654              3178.7378
 Red. masses --     1.1033                 1.0926                 1.0981
 Frc consts  --     6.3261                 6.4651                 6.5375
 IR Inten    --     3.1676                 3.4572                 1.0869

                    88                     89                     90
                     A                      A                      A
 Frequencies --  3182.6405              3184.0324              3195.3531
 Red. masses --     1.0943                 1.1065                 1.1080
 Frc consts  --     6.5310                 6.6092                 6.6653
 IR Inten    --     5.7817                 1.6996                 1.0918

                    91                     92                     93
                     A                      A                      A
 Frequencies --  3196.0593              3530.6796              3629.2741
 Red. masses --     1.0968                 1.0749                 1.0775
 Frc consts  --     6.6008                 7.8947                 8.3622
 IR Inten    --     1.2306                56.9701                25.1640

 - Thermochemistry -
 -------------------
 Temperature   298.150 Kelvin.  Pressure   1.00000 Atm.
 Atom     1 has atomic number  6 and mass  12.00000

 Molecular mass:   251.09398 amu.
 Principal axes and moments of inertia in atomic units:
                           1         2         3
     Eigenvalues --  3195.944805724.706377419.12311
           X            0.99966  -0.02463  -0.00905
           Y            0.02489   0.99927   0.02916
           Z            0.00833  -0.02937   0.99953
 This molecule is an asymmetric top.
 Rotational symmetry number  1.
 Warning -- assumption of classical behavior for rotation
           may cause significant error
 Rotational temperatures (Kelvin)      0.02710     0.01513     0.01167
 Rotational constants (GHZ):           0.56470     0.31525     0.24326
 Zero-point vibrational energy     713444.9 (Joules/Mol)
                                  170.51743 (Kcal/Mol)
 Warning -- explicit consideration of  30 degrees of freedom as
           vibrations may cause significant error
 Vibrational temperatures:     27.04    32.14    53.26    73.76   102.20
          (Kelvin)            104.38   129.73   162.00   186.55   205.92
                              210.31   245.40   304.31   309.88   323.14
                              348.47   374.96   408.23   452.38   476.39
                              509.35   559.61   621.98   634.06   673.30
                              692.12   712.79   762.79   873.88   892.98
                              925.29  1035.79  1049.19  1098.73  1122.06
                             1297.12  1336.05  1373.24  1432.22  1439.31
                             1463.62  1495.49  1572.47  1575.05  1596.49
                             1624.52  1640.05  1669.98  1683.32  1698.70
                             1702.53  1746.81  1821.56  1852.44  1860.93
                             1912.91  1948.55  1987.68  2016.65  2057.07
                             2087.91  2100.08  2115.28  2135.50  2139.66
                             2144.71  2155.56  2189.51  2192.86  2200.73
                             2206.71  2230.70  2242.08  2286.54  2498.27
                             2537.92  4361.16  4376.77  4387.57  4415.97
                             4440.81  4448.14  4463.04  4479.51  4488.43
                             4559.57  4573.49  4579.10  4581.11  4597.39
                             4598.41  5079.85  5221.71

 Zero-point correction=                           0.271737 (Hartree/Particle)
 Thermal correction to Energy=                    0.291108
 Thermal correction to Enthalpy=                  0.292052
 Thermal correction to Gibbs Free Energy=         0.221288
 Sum of electronic and zero-point Energies=          -1178.116381
 Sum of electronic and thermal Energies=             -1178.097010
 Sum of electronic and thermal Enthalpies=           -1178.096066
 Sum of electronic and thermal Free Energies=        -1178.166829

                     E (Thermal)             CV                S
                      KCal/Mol        Cal/Mol-Kelvin    Cal/Mol-Kelvin
 Total                  182.673             67.478            148.934
 Electronic               0.000              0.000              0.000
 Translational            0.889              2.981             42.462
 Rotational               0.889              2.981             33.273
 Vibrational            180.895             61.517             73.199
 Vibration     1          0.593              1.986              6.758
 Vibration     2          0.593              1.985              6.415
 Vibration     3          0.594              1.982              5.413
 Vibration     4          0.596              1.977              4.768
 Vibration     5          0.598              1.968              4.125
 Vibration     6          0.599              1.967              4.083
 Vibration     7          0.602              1.956              3.656
 Vibration     8          0.607              1.939              3.224
 Vibration     9          0.612              1.924              2.951
 Vibration    10          0.616              1.910              2.762
 Vibration    11          0.617              1.907              2.721
 Vibration    12          0.626              1.879              2.429
 Vibration    13          0.643              1.823              2.031
 Vibration    14          0.645              1.818              1.998
 Vibration    15          0.649              1.804              1.922
 Vibration    16          0.658              1.776              1.787
 Vibration    17          0.669              1.745              1.658
 Vibration    18          0.682              1.704              1.511
 Vibration    19          0.702              1.646              1.339
 Vibration    20          0.713              1.613              1.255
 Vibration    21          0.730              1.567              1.148
 Vibration    22          0.757              1.494              1.004
 Vibration    23          0.793              1.400              0.851
 Vibration    24          0.801              1.381              0.824
 Vibration    25          0.825              1.321              0.743
 Vibration    26          0.837              1.292              0.707
 Vibration    27          0.851              1.260              0.670
 Vibration    28          0.885              1.183              0.587
 Vibration    29          0.966              1.016              0.437
 Vibration    30          0.981              0.988              0.415

 Normal termination of Gaussian 09 at Sat Feb 17 00:07:38 2018.
