 Gaussian 09, Revision C.01,
 Gaussian 09:  AM64L-G09RevC.01 23-Sep-2011

 ----------------------------------------------------------------------
 #HF/6-31G* Geom=AllCheck Guess=Read Pop=(MK,ReadRadii) Integral=(Grid=
 UltraFine) iop(6/33=2)
 ----------------------------------------------------------------------

 Structure from the checkpoint file:  frag35-conf2.chk
 -----------------------------
 Optimization for frag35-conf2
 -----------------------------
 Charge =  0 Multiplicity = 1

                         Standard orientation:
 ---------------------------------------------------------------------
 Center     Atomic      Atomic             Coordinates (Angstroms)
 Number     Number       Type             X           Y           Z
 ---------------------------------------------------------------------
      1          6           0        1.880907   -1.377382    0.202143
      2          6           0        0.625183    1.362614   -0.632617
      3          6           0        4.067322   -2.511475   -0.035222
      4          6           0        1.882896    3.424310   -0.436991
      5          6           0        1.355848    2.155237    1.629626
      6          6           0       -3.706147    0.547637    1.044227
      7          6           0        0.521838   -1.156607   -0.453955
      8          6           0       -0.133519    0.167607   -0.013771
      9          7           0        2.754193   -2.128968   -0.523966
     10          7           0       -1.502879    0.338394   -0.532447
     11          7           0        1.275484    2.245195    0.172254
     12          8           0        2.149360   -0.934972    1.319158
     13          8           0        0.582643    1.471737   -1.861256
     14          8           0       -2.278392   -1.661569    0.896127
     15          8           0       -3.603871   -0.913688   -1.163843
     16         16           0       -2.783333   -0.604496    0.010716
     17          1           0        4.189673   -2.066010    0.952681
     18          1           0        4.857544   -2.140559   -0.698176
     19          1           0        4.157379   -3.600960    0.048493
     20          1           0        1.430200    4.337781   -0.030541
     21          1           0        1.718816    3.383356   -1.512489
     22          1           0        2.959560    3.447820   -0.229230
     23          1           0        1.447624    1.117610    1.949925
     24          1           0        0.495515    2.636466    2.115281
     25          1           0        2.260676    2.678697    1.952062
     26          1           0       -4.565606    0.004699    1.444389
     27          1           0       -3.061956    0.886863    1.857519
     28          1           0       -4.032951    1.386894    0.428706
     29          1           0       -0.136419   -1.976366   -0.146324
     30          1           0        0.597950   -1.167110   -1.547039
     31          1           0       -0.176014    0.199641    1.072747
     32          1           0        2.465461   -2.449449   -1.437115
     33          1           0       -1.525583    0.446508   -1.545352
 ---------------------------------------------------------------------

 SCF Done:  E(RHF) =  -1173.09320218     A.U. after   13 cycles

 The electronic state is 1-A.
 Alpha  occ. eigenvalues --  -92.21591 -20.56132 -20.55948 -20.53457 -20.53179
 Alpha  occ. eigenvalues --  -15.60946 -15.60428 -15.59999 -11.36562 -11.36475
 Alpha  occ. eigenvalues --  -11.30442 -11.27901 -11.26662 -11.26539 -11.26124
 Alpha  occ. eigenvalues --  -11.25106  -9.18671  -6.87266  -6.87253  -6.87141
 Alpha  occ. eigenvalues --   -1.45633  -1.38766  -1.38307  -1.33863  -1.24946
 Alpha  occ. eigenvalues --   -1.23892  -1.23499  -1.07116  -1.03136  -0.98540
 Alpha  occ. eigenvalues --   -0.96890  -0.94414  -0.89693  -0.83153  -0.79412
 Alpha  occ. eigenvalues --   -0.75690  -0.73289  -0.70735  -0.69045  -0.67599
 Alpha  occ. eigenvalues --   -0.67071  -0.65852  -0.65641  -0.64672  -0.63550
 Alpha  occ. eigenvalues --   -0.61933  -0.60638  -0.60472  -0.59821  -0.58314
 Alpha  occ. eigenvalues --   -0.57259  -0.56422  -0.55850  -0.55248  -0.55038
 Alpha  occ. eigenvalues --   -0.53296  -0.53084  -0.51389  -0.50396  -0.49026
 Alpha  occ. eigenvalues --   -0.46948  -0.45863  -0.44566  -0.42393  -0.41447
 Alpha  occ. eigenvalues --   -0.39582  -0.37606
 Alpha virt. eigenvalues --    0.16609   0.18890   0.21166   0.21824   0.23511
 Alpha virt. eigenvalues --    0.23989   0.25356   0.26294   0.27090   0.27399
 Alpha virt. eigenvalues --    0.27688   0.28652   0.29410   0.29824   0.30513

 Mulliken atomic charges:
              1
     1  C    0.790824
     2  C    0.812500
     3  C   -0.289550
     4  C   -0.298383
     5  C   -0.319923
     6  C   -0.694370
     7  C   -0.462765
     8  C   -0.041013
     9  N   -0.796395
    10  N   -0.922003
    11  N   -0.663991
    12  O   -0.652503
    13  O   -0.665598
    14  O   -0.703633
    15  O   -0.681771
    16  S    1.609461
    17  H    0.229828
    18  H    0.173240
    19  H    0.173703
    20  H    0.167295
    21  H    0.236939
    22  H    0.171243
    23  H    0.255164
    24  H    0.162887
    25  H    0.183825
    26  H    0.232777
    27  H    0.217927
    28  H    0.228380
    29  H    0.268868
    30  H    0.207209
    31  H    0.241117
    32  H    0.391815
    33  H    0.436896
 Sum of Mulliken atomic charges =   0.00000

 Dipole moment (field-independent basis, Debye):
    X=              2.6150    Y=              2.3491    Z=              1.3356  Tot=              3.7603
 Quadrupole moment (field-independent basis, Debye-Ang):
   XX=            -98.3811   YY=            -96.8667   ZZ=           -110.2763
   XY=            -14.0928   XZ=            -12.2916   YZ=             11.8835

 Normal termination of Gaussian 09 at Sat Feb 17 21:04:42 2018.
