 Gaussian 09, Revision C.01,
 Gaussian 09:  AM64L-G09RevC.01 23-Sep-2011

 ----------------------------------------------------------------------
 #HF/6-31G* Geom=AllCheck Guess=Read Pop=(MK,ReadRadii) Integral=(Grid=
 UltraFine) iop(6/33=2)
 ----------------------------------------------------------------------

 Structure from the checkpoint file:  frag0-conf2.chk
 ----------------------------
 Optimization for frag0-conf2
 ----------------------------
 Charge =  0 Multiplicity = 1

                         Standard orientation:
 ---------------------------------------------------------------------
 Center     Atomic      Atomic             Coordinates (Angstroms)
 Number     Number       Type             X           Y           Z
 ---------------------------------------------------------------------
      1          6           0        1.437162    0.456649   -0.115762
      2          6           0       -0.975553   -1.752613   -0.209874
      3          6           0       -0.949990    2.591217   -0.127754
      4          6           0       -1.346023    1.736149    1.089670
      5          6           0       -0.455287    1.713635   -1.301567
      6          6           0       -1.924740    0.383241    0.670250
      7          6           0        0.089500    0.345152   -0.875649
      8          6           0       -2.132500   -2.486037    0.449817
      9          6           0        3.362538   -0.856364    0.683598
     10          7           0       -0.929814   -0.393099   -0.090520
     11          7           0        2.105774   -0.721449   -0.028084
     12          8           0        1.850694    1.523186    0.336127
     13          8           0       -0.107986   -2.383360   -0.828000
     14          1           0       -1.810523    3.182491   -0.465146
     15          1           0       -0.166945    3.291164    0.170141
     16          1           0       -0.464420    1.561050    1.715032
     17          1           0       -2.084522    2.256609    1.710450
     18          1           0       -1.280573    1.525609   -1.999640
     19          1           0        0.324162    2.233482   -1.866076
     20          1           0       -2.213037   -0.187111    1.556954
     21          1           0       -2.835038    0.532943    0.068179
     22          1           0        0.271368   -0.264319   -1.766389
     23          1           0       -3.104851   -2.053537    0.191955
     24          1           0       -2.039295   -2.466386    1.542446
     25          1           0       -2.095395   -3.524092    0.117612
     26          1           0        4.119696   -1.328313    0.047119
     27          1           0        3.247018   -1.459953    1.593163
     28          1           0        3.699133    0.143385    0.962059
     29          1           0        1.629206   -1.545975   -0.389005
 ---------------------------------------------------------------------

 SCF Done:  E(RHF) =  -608.785106522     A.U. after   14 cycles

 The electronic state is 1-A.
 Alpha  occ. eigenvalues --  -20.53446 -20.51527 -15.60333 -15.57018 -11.36576
 Alpha  occ. eigenvalues --  -11.34115 -11.27991 -11.27965 -11.24884 -11.24646
 Alpha  occ. eigenvalues --  -11.23046 -11.23035 -11.22186  -1.38541  -1.36303
 Alpha  occ. eigenvalues --   -1.25504  -1.21117  -1.08227  -1.04770  -1.00625
 Alpha  occ. eigenvalues --   -0.95357  -0.91307  -0.87383  -0.78845  -0.77869
 Alpha  occ. eigenvalues --   -0.74153  -0.71170  -0.68859  -0.65010  -0.64192
 Alpha  occ. eigenvalues --   -0.63065  -0.61516  -0.60454  -0.59989  -0.58431
 Alpha  occ. eigenvalues --   -0.57700  -0.56525  -0.56015  -0.53874  -0.53543
 Alpha  occ. eigenvalues --   -0.52995  -0.51943  -0.50369  -0.47210  -0.46765
 Alpha  occ. eigenvalues --   -0.46162  -0.42955  -0.41870  -0.37168  -0.36819
 Alpha virt. eigenvalues --    0.17474   0.20230   0.20871   0.24412   0.25396
 Alpha virt. eigenvalues --    0.26755   0.28338   0.28672   0.29098   0.30176
 Alpha virt. eigenvalues --    0.30683   0.31966   0.32765   0.33199   0.33506

 Mulliken atomic charges:
              1
     1  C    0.790912
     2  C    0.777601
     3  C   -0.302134
     4  C   -0.353108
     5  C   -0.325456
     6  C   -0.104788
     7  C   -0.083860
     8  C   -0.591613
     9  C   -0.284197
    10  N   -0.683359
    11  N   -0.824547
    12  O   -0.650921
    13  O   -0.668134
    14  H    0.154097
    15  H    0.205860
    16  H    0.202211
    17  H    0.172626
    18  H    0.168021
    19  H    0.196279
    20  H    0.182576
    21  H    0.167879
    22  H    0.234420
    23  H    0.191639
    24  H    0.197183
    25  H    0.222776
    26  H    0.168478
    27  H    0.162420
    28  H    0.219843
    29  H    0.457296
 Sum of Mulliken atomic charges =   0.00000

 Dipole moment (field-independent basis, Debye):
    X=             -3.4690    Y=             -0.7820    Z=              0.9238  Tot=              3.6741
 Quadrupole moment (field-independent basis, Debye-Ang):
   XX=            -73.0406   YY=            -86.1408   ZZ=            -78.1157
   XY=             -4.0226   XZ=             -1.9964   YZ=             -6.2786

 Normal termination of Gaussian 09 at Sun Feb 18 17:07:45 2018.
