 Gaussian 09, Revision C.01,
 Gaussian 09:  AM64L-G09RevC.01 23-Sep-2011

 ---------------------------------------------------------
 #B3LYP/6-31G* Integral=(Grid=UltraFine) freq Opt pop=none
 ---------------------------------------------------------

 99/9=1/99;
 ----------------------------
 Optimization for frag0-conf2
 ----------------------------
 Charge =  0 Multiplicity = 1

 SCF Done:  E(RB3LYP) =  -612.573691547     A.U. after   14 cycles
 SCF Done:  E(RB3LYP) =  -612.579189983     A.U. after   12 cycles
 SCF Done:  E(RB3LYP) =  -612.578884692     A.U. after   15 cycles
 SCF Done:  E(RB3LYP) =  -612.579802471     A.U. after   15 cycles
 SCF Done:  E(RB3LYP) =  -612.580036151     A.U. after   12 cycles
 SCF Done:  E(RB3LYP) =  -612.580106116     A.U. after   12 cycles
 SCF Done:  E(RB3LYP) =  -612.580335340     A.U. after   11 cycles
 SCF Done:  E(RB3LYP) =  -612.580338218     A.U. after   12 cycles
 SCF Done:  E(RB3LYP) =  -612.580426361     A.U. after   12 cycles
 SCF Done:  E(RB3LYP) =  -612.580485748     A.U. after   11 cycles
 SCF Done:  E(RB3LYP) =  -612.555115319     A.U. after   16 cycles
 SCF Done:  E(RB3LYP) =  -612.580579071     A.U. after   15 cycles
 SCF Done:  E(RB3LYP) =  -612.580716051     A.U. after   12 cycles
 SCF Done:  E(RB3LYP) =  -612.580753625     A.U. after   11 cycles
 SCF Done:  E(RB3LYP) =  -612.580674724     A.U. after   12 cycles
 SCF Done:  E(RB3LYP) =  -612.580690592     A.U. after   14 cycles
 SCF Done:  E(RB3LYP) =  -612.580785933     A.U. after   11 cycles
 SCF Done:  E(RB3LYP) =  -612.580787378     A.U. after    8 cycles
 SCF Done:  E(RB3LYP) =  -612.580787848     A.U. after    9 cycles
 Optimization completed.
    -- Stationary point found.
 Normal termination of Gaussian 09 at Sat Feb 17 22:19:16 2018.

 --------------------------------------------------------------------
 #N Geom=AllCheck Guess=TCheck SCRF=Check GenChk RB3LYP/6-31G(d) Freq
 --------------------------------------------------------------------

 Structure from the checkpoint file:  frag0-conf2.chk
 ----------------------------
 Optimization for frag0-conf2
 ----------------------------
 Charge =  0 Multiplicity = 1

                         Standard orientation:
 ---------------------------------------------------------------------
 Center     Atomic      Atomic             Coordinates (Angstroms)
 Number     Number       Type             X           Y           Z
 ---------------------------------------------------------------------
      1          6           0        1.437162    0.456649   -0.115762
      2          6           0       -0.975553   -1.752613   -0.209874
      3          6           0       -0.949990    2.591217   -0.127754
      4          6           0       -1.346023    1.736149    1.089670
      5          6           0       -0.455287    1.713635   -1.301567
      6          6           0       -1.924740    0.383241    0.670250
      7          6           0        0.089500    0.345152   -0.875649
      8          6           0       -2.132500   -2.486037    0.449817
      9          6           0        3.362538   -0.856364    0.683598
     10          7           0       -0.929814   -0.393099   -0.090520
     11          7           0        2.105774   -0.721449   -0.028084
     12          8           0        1.850694    1.523186    0.336127
     13          8           0       -0.107986   -2.383360   -0.828000
     14          1           0       -1.810523    3.182491   -0.465146
     15          1           0       -0.166945    3.291164    0.170141
     16          1           0       -0.464420    1.561050    1.715032
     17          1           0       -2.084522    2.256609    1.710450
     18          1           0       -1.280573    1.525609   -1.999640
     19          1           0        0.324162    2.233482   -1.866076
     20          1           0       -2.213037   -0.187111    1.556954
     21          1           0       -2.835038    0.532943    0.068179
     22          1           0        0.271368   -0.264319   -1.766389
     23          1           0       -3.104851   -2.053537    0.191955
     24          1           0       -2.039295   -2.466386    1.542446
     25          1           0       -2.095395   -3.524092    0.117612
     26          1           0        4.119696   -1.328313    0.047119
     27          1           0        3.247018   -1.459953    1.593163
     28          1           0        3.699133    0.143385    0.962059
     29          1           0        1.629206   -1.545975   -0.389005
 ---------------------------------------------------------------------

 SCF Done:  E(RB3LYP) =  -612.580787848     A.U. after    1 cycles

 Isotropic polarizability for W=    0.000000      109.30 Bohr**3.
 End of Minotr Frequency-dependent properties file   721 does not exist.

                     1                      2                      3
                     A                      A                      A
 Frequencies --    52.3198                69.6440                84.3258
 Red. masses --     6.4018                 1.0201                 3.2415
 Frc consts  --     0.0103                 0.0029                 0.0136
 IR Inten    --     4.9197                 0.0306                 1.8315

                     4                      5                      6
                     A                      A                      A
 Frequencies --    95.1479               133.6871               149.7669
 Red. masses --     2.7719                 3.6455                 3.5422
 Frc consts  --     0.0148                 0.0384                 0.0468
 IR Inten    --     1.7195                 0.5304                10.2170

                     7                      8                      9
                     A                      A                      A
 Frequencies --   167.9002               179.8787               206.0745
 Red. masses --     1.7935                 1.4967                 2.5605
 Frc consts  --     0.0298                 0.0285                 0.0641
 IR Inten    --     0.7739                 1.3006                 3.6339

                    10                     11                     12
                     A                      A                      A
 Frequencies --   245.2426               281.3958               305.4712
 Red. masses --     4.1465                 2.1288                 3.1793
 Frc consts  --     0.1469                 0.0993                 0.1748
 IR Inten    --     3.8163                 3.0110                 6.2939

                    13                     14                     15
                     A                      A                      A
 Frequencies --   326.4652               353.0226               386.7823
 Red. masses --     3.7969                 5.1477                 4.3977
 Frc consts  --     0.2384                 0.3780                 0.3876
 IR Inten    --     3.6956                10.3149                12.8316

                    16                     17                     18
                     A                      A                      A
 Frequencies --   473.4232               499.1672               581.9715
 Red. masses --     3.9433                 2.7022                 3.3283
 Frc consts  --     0.5207                 0.3967                 0.6642
 IR Inten    --    12.2298                 4.2526                 4.7583

                    19                     20                     21
                     A                      A                      A
 Frequencies --   588.2672               615.8351               679.1522
 Red. masses --     3.9857                 3.0279                 2.8915
 Frc consts  --     0.8127                 0.6766                 0.7858
 IR Inten    --    10.8123                14.2603                23.1480

                    22                     23                     24
                     A                      A                      A
 Frequencies --   722.9868               755.8167               784.9370
 Red. masses --     2.9819                 1.2819                 1.3432
 Frc consts  --     0.9183                 0.4315                 0.4876
 IR Inten    --    12.0952                69.6581                11.2011

                    25                     26                     27
                     A                      A                      A
 Frequencies --   823.3635               854.8874               885.8957
 Red. masses --     3.3800                 3.3586                 2.5529
 Frc consts  --     1.3501                 1.4462                 1.1804
 IR Inten    --     1.4860                 0.9413                 2.4175

                    28                     29                     30
                     A                      A                      A
 Frequencies --   927.7517               954.3271               995.8314
 Red. masses --     2.3116                 2.1718                 2.1958
 Frc consts  --     1.1723                 1.1654                 1.2830
 IR Inten    --     4.0472                 3.6504                 4.2563

                    31                     32                     33
                     A                      A                      A
 Frequencies --  1007.1738              1046.5399              1063.9883
 Red. masses --     2.0629                 2.1263                 1.7243
 Frc consts  --     1.2329                 1.3721                 1.1501
 IR Inten    --    14.9848                 1.8559                 4.2742

                    34                     35                     36
                     A                      A                      A
 Frequencies --  1075.9343              1100.3770              1125.1841
 Red. masses --     3.2299                 1.8984                 2.0012
 Frc consts  --     2.2030                 1.3543                 1.4927
 IR Inten    --    10.0650                 0.4671                 4.1962

                    37                     38                     39
                     A                      A                      A
 Frequencies --  1138.2105              1159.8353              1170.8401
 Red. masses --     1.7137                 1.2894                 2.9675
 Frc consts  --     1.3081                 1.0219                 2.3968
 IR Inten    --     0.6905                 1.9251                33.2337

                    40                     41                     42
                     A                      A                      A
 Frequencies --  1189.7886              1225.1667              1265.5727
 Red. masses --     1.7649                 1.2006                 1.8787
 Frc consts  --     1.4720                 1.0618                 1.7729
 IR Inten    --    44.5855                 3.6672                43.1348

                    43                     44                     45
                     A                      A                      A
 Frequencies --  1287.6693              1297.0183              1316.8182
 Red. masses --     1.5160                 1.4259                 1.2416
 Frc consts  --     1.4811                 1.4133                 1.2685
 IR Inten    --     9.9363                27.1257                 5.2205

                    46                     47                     48
                     A                      A                      A
 Frequencies --  1350.8710              1373.8780              1390.0031
 Red. masses --     1.7163                 1.3441                 1.3891
 Frc consts  --     1.8454                 1.4948                 1.5813
 IR Inten    --    31.6768                 1.4757                 7.7309

                    49                     50                     51
                     A                      A                      A
 Frequencies --  1406.6860              1410.9782              1412.1495
 Red. masses --     1.4010                 1.4492                 1.3511
 Frc consts  --     1.6334                 1.6999                 1.5875
 IR Inten    --     4.7998                16.2239                18.7384

                    52                     53                     54
                     A                      A                      A
 Frequencies --  1419.2939              1451.6784              1459.2056
 Red. masses --     1.3768                 3.0707                 1.1827
 Frc consts  --     1.6340                 3.8127                 1.4838
 IR Inten    --     5.2121               209.7502                25.7479

                    55                     56                     57
                     A                      A                      A
 Frequencies --  1501.1064              1507.1456              1514.9363
 Red. masses --     1.0914                 1.0773                 1.0572
 Frc consts  --     1.4490                 1.4417                 1.4295
 IR Inten    --    11.8094                 0.3313                 7.5993

                    58                     59                     60
                     A                      A                      A
 Frequencies --  1519.8663              1526.1207              1530.4650
 Red. masses --     1.0823                 1.0828                 1.0640
 Frc consts  --     1.4730                 1.4858                 1.4683
 IR Inten    --     9.6548                46.2723                11.9198

                    61                     62                     63
                     A                      A                      A
 Frequencies --  1531.2584              1543.9093              1615.0267
 Red. masses --     1.0927                 1.0883                 1.6928
 Frc consts  --     1.5096                 1.5285                 2.6015
 IR Inten    --     9.6996                 0.3214               208.4891

                    64                     65                     66
                     A                      A                      A
 Frequencies --  1717.3009              1773.3948              3000.5140
 Red. masses --     8.4984                 8.2194                 1.0729
 Frc consts  --    14.7666                15.2301                 5.6909
 IR Inten    --   189.0278               294.2046                46.0224

                    67                     68                     69
                     A                      A                      A
 Frequencies --  3041.4195              3044.2573              3057.8873
 Red. masses --     1.0397                 1.0715                 1.0526
 Frc consts  --     5.6664                 5.8505                 5.7988
 IR Inten    --    68.8687                16.8349                24.8279

                    70                     71                     72
                     A                      A                      A
 Frequencies --  3058.3113              3066.6811              3085.5983
 Red. masses --     1.0558                 1.0631                 1.0844
 Frc consts  --     5.8181                 5.8907                 6.0829
 IR Inten    --    27.5060                29.6720                 8.7419

                    73                     74                     75
                     A                      A                      A
 Frequencies --  3094.3598              3107.6678              3111.8805
 Red. masses --     1.1023                 1.0945                 1.0955
 Frc consts  --     6.2187                 6.2278                 6.2506
 IR Inten    --    36.4399                33.7861                19.0234

                    76                     77                     78
                     A                      A                      A
 Frequencies --  3113.2056              3119.7334              3138.2125
 Red. masses --     1.0977                 1.0993                 1.0967
 Frc consts  --     6.2682                 6.3040                 6.3637
 IR Inten    --    16.3954                 9.5213                22.8703

                    79                     80                     81
                     A                      A                      A
 Frequencies --  3171.2638              3176.6784              3493.8606
 Red. masses --     1.0983                 1.1006                 1.0810
 Frc consts  --     6.5080                 6.5438                 7.7747
 IR Inten    --     3.2272                 6.5410               167.9889

 - Thermochemistry -
 -------------------
 Temperature   298.150 Kelvin.  Pressure   1.00000 Atm.
 Atom     1 has atomic number  6 and mass  12.00000

 Molecular mass:   184.12118 amu.
 Principal axes and moments of inertia in atomic units:
                           1         2         3
     Eigenvalues --  2055.364802206.915253575.43075
           X            0.98351  -0.18082  -0.00313
           Y            0.18073   0.98334  -0.01957
           Z            0.00661   0.01868   0.99980
 This molecule is an asymmetric top.
 Rotational symmetry number  1.
 Warning -- assumption of classical behavior for rotation
           may cause significant error
 Rotational temperatures (Kelvin)      0.04214     0.03925     0.02422
 Rotational constants (GHZ):           0.87806     0.81777     0.50476
 Zero-point vibrational energy     666844.3 (Joules/Mol)
                                  159.37961 (Kcal/Mol)
 Warning -- explicit consideration of  20 degrees of freedom as
           vibrations may cause significant error
 Vibrational temperatures:     75.28   100.20   121.33   136.90   192.35
          (Kelvin)            215.48   241.57   258.80   296.49   352.85
                              404.87   439.50   469.71   507.92   556.49
                              681.15   718.19   837.33   846.38   886.05
                              977.15  1040.22  1087.45  1129.35  1184.63
                             1229.99  1274.60  1334.83  1373.06  1432.78
                             1449.10  1505.74  1530.84  1548.03  1583.20
                             1618.89  1637.63  1668.74  1684.58  1711.84
                             1762.74  1820.87  1852.67  1866.12  1894.61
                             1943.60  1976.70  1999.90  2023.90  2030.08
                             2031.77  2042.04  2088.64  2099.47  2159.75
                             2168.44  2179.65  2186.75  2195.74  2202.00
                             2203.14  2221.34  2323.66  2470.81  2551.52
                             4317.07  4375.92  4380.00  4399.61  4400.22
                             4412.26  4439.48  4452.09  4471.24  4477.30
                             4479.20  4488.59  4515.18  4562.74  4570.53
                             5026.88

 Zero-point correction=                           0.253988 (Hartree/Particle)
 Thermal correction to Energy=                    0.267543
 Thermal correction to Enthalpy=                  0.268487
 Thermal correction to Gibbs Free Energy=         0.213756
 Sum of electronic and zero-point Energies=           -612.326800
 Sum of electronic and thermal Energies=              -612.313245
 Sum of electronic and thermal Enthalpies=            -612.312301
 Sum of electronic and thermal Free Energies=         -612.367032

                     E (Thermal)             CV                S
                      KCal/Mol        Cal/Mol-Kelvin    Cal/Mol-Kelvin
 Total                  167.886             49.939            115.190
 Electronic               0.000              0.000              0.000
 Translational            0.889              2.981             41.538
 Rotational               0.889              2.981             31.162
 Vibrational            166.108             43.977             42.491
 Vibration     1          0.596              1.977              4.728
 Vibration     2          0.598              1.969              4.163
 Vibration     3          0.601              1.960              3.788
 Vibration     4          0.603              1.953              3.551
 Vibration     5          0.613              1.920              2.892
 Vibration     6          0.618              1.903              2.675
 Vibration     7          0.625              1.882              2.459
 Vibration     8          0.629              1.867              2.330
 Vibration     9          0.641              1.831              2.078
 Vibration    10          0.660              1.771              1.765
 Vibration    11          0.681              1.708              1.525
 Vibration    12          0.696              1.663              1.387
 Vibration    13          0.710              1.623              1.278
 Vibration    14          0.729              1.569              1.153
 Vibration    15          0.755              1.498              1.013
 Vibration    16          0.830              1.309              0.728
 Vibration    17          0.855              1.252              0.660
 Vibration    18          0.939              1.070              0.482
 Vibration    19          0.945              1.057              0.470
 Vibration    20          0.975              0.998              0.423

 Normal termination of Gaussian 09 at Sat Feb 17 22:48:40 2018.
