 Gaussian 09, Revision C.01,
 Gaussian 09:  AM64L-G09RevC.01 23-Sep-2011

 ----------------------------------------------------------------------
 #HF/6-31G* Geom=AllCheck Guess=Read Pop=(MK,ReadRadii) Integral=(Grid=
 UltraFine) iop(6/33=2)
 ----------------------------------------------------------------------

 Structure from the checkpoint file:  frag38-conf0.chk
 -----------------------------
 Optimization for frag38-conf0
 -----------------------------
 Charge =  0 Multiplicity = 1

                         Standard orientation:
 ---------------------------------------------------------------------
 Center     Atomic      Atomic             Coordinates (Angstroms)
 Number     Number       Type             X           Y           Z
 ---------------------------------------------------------------------
      1          6           0        1.199553    0.055525    0.153330
      2          6           0       -1.870712   -0.843018   -0.079465
      3          6           0       -0.231844    2.186307   -0.165301
      4          6           0       -1.619941    1.644199    0.272718
      5          6           0        0.106824    0.743723   -0.674366
      6          6           0       -1.145979   -2.082901   -0.573224
      7          6           0        3.589059   -0.585414    0.164791
      8          7           0       -1.263412    0.359105   -0.333253
      9          7           0        2.403683   -0.046978   -0.480404
     10          8           0        0.999111   -0.321404    1.301108
     11          8           0       -2.945685   -0.883759    0.504388
     12          1           0       -0.261270    2.935267   -0.959444
     13          1           0        0.404928    2.536784    0.648728
     14          1           0       -1.772218    1.573157    1.354496
     15          1           0       -2.493034    2.122814   -0.182997
     16          1           0        0.326893    0.677765   -1.749678
     17          1           0       -0.448415   -2.420341    0.201222
     18          1           0       -0.576424   -1.904932   -1.492073
     19          1           0       -1.883018   -2.869159   -0.747166
     20          1           0        3.303608   -0.876199    1.176598
     21          1           0        4.387492    0.164088    0.216785
     22          1           0        3.963781   -1.465877   -0.369868
     23          1           0        2.476616    0.272530   -1.435878
 ---------------------------------------------------------------------

 SCF Done:  E(RHF) =  -530.683761897     A.U. after   14 cycles

 The electronic state is 1-A.
 Alpha  occ. eigenvalues --  -20.53639 -20.51298 -15.60724 -15.58165 -11.36506
 Alpha  occ. eigenvalues --  -11.34312 -11.29928 -11.27226 -11.26661 -11.25339
 Alpha  occ. eigenvalues --  -11.22815  -1.38961  -1.36440  -1.26403  -1.24098
 Alpha  occ. eigenvalues --   -1.05122  -1.00366  -0.97019  -0.93230  -0.83358
 Alpha  occ. eigenvalues --   -0.80740  -0.76069  -0.71350  -0.67061  -0.65077
 Alpha  occ. eigenvalues --   -0.64245  -0.63646  -0.62154  -0.59659  -0.58257
 Alpha  occ. eigenvalues --   -0.56417  -0.56057  -0.55719  -0.54167  -0.52588
 Alpha  occ. eigenvalues --   -0.51372  -0.48804  -0.48286  -0.43244  -0.40446
 Alpha  occ. eigenvalues --   -0.40072  -0.36829
 Alpha virt. eigenvalues --    0.16911   0.19111   0.20599   0.24180   0.25185
 Alpha virt. eigenvalues --    0.26015   0.27191   0.29201   0.30479   0.30714
 Alpha virt. eigenvalues --    0.31310   0.31425   0.33055   0.34053   0.35137

 Mulliken atomic charges:
              1
     1  C    0.784230
     2  C    0.771550
     3  C   -0.391808
     4  C   -0.057370
     5  C   -0.032681
     6  C   -0.601798
     7  C   -0.289717
     8  N   -0.674626
     9  N   -0.804482
    10  O   -0.629654
    11  O   -0.614780
    12  H    0.190403
    13  H    0.205564
    14  H    0.204220
    15  H    0.183679
    16  H    0.186758
    17  H    0.224427
    18  H    0.166525
    19  H    0.211453
    20  H    0.234654
    21  H    0.172985
    22  H    0.173650
    23  H    0.386819
 Sum of Mulliken atomic charges =   0.00000

 Dipole moment (field-independent basis, Debye):
    X=              5.4279    Y=              2.1748    Z=             -4.3648  Tot=              7.2967
 Quadrupole moment (field-independent basis, Debye-Ang):
   XX=            -71.2816   YY=            -60.3419   ZZ=            -67.1655
   XY=             -4.5022   XZ=             -0.7017   YZ=              2.0573

 Normal termination of Gaussian 09 at Sat Feb 17 21:03:18 2018.
