 Gaussian 09, Revision C.01,
 Gaussian 09:  AM64L-G09RevC.01 23-Sep-2011

 ---------------------------------------------------------
 #B3LYP/6-31G* Integral=(Grid=UltraFine) freq Opt pop=none
 ---------------------------------------------------------

 99/9=1/99;
 -----------------------------
 Optimization for frag38-conf0
 -----------------------------
 Charge =  0 Multiplicity = 1

 SCF Done:  E(RB3LYP) =  -533.909920379     A.U. after   15 cycles
 SCF Done:  E(RB3LYP) =  -533.915950547     A.U. after   12 cycles
 SCF Done:  E(RB3LYP) =  -533.916357798     A.U. after   11 cycles
 SCF Done:  E(RB3LYP) =  -533.916353120     A.U. after   12 cycles
 SCF Done:  E(RB3LYP) =  -533.916717886     A.U. after   12 cycles
 SCF Done:  E(RB3LYP) =  -533.916954807     A.U. after   12 cycles
 SCF Done:  E(RB3LYP) =  -533.917109913     A.U. after   13 cycles
 SCF Done:  E(RB3LYP) =  -533.917146835     A.U. after   12 cycles
 SCF Done:  E(RB3LYP) =  -533.917211828     A.U. after   13 cycles
 SCF Done:  E(RB3LYP) =  -533.917242957     A.U. after   10 cycles
 SCF Done:  E(RB3LYP) =  -533.917770398     A.U. after   14 cycles
 SCF Done:  E(RB3LYP) =  -533.917871950     A.U. after   11 cycles
 SCF Done:  E(RB3LYP) =  -533.917908986     A.U. after   10 cycles
 SCF Done:  E(RB3LYP) =  -533.917941853     A.U. after   10 cycles
 SCF Done:  E(RB3LYP) =  -533.917955556     A.U. after   10 cycles
 SCF Done:  E(RB3LYP) =  -533.917956945     A.U. after    9 cycles
 SCF Done:  E(RB3LYP) =  -533.917957031     A.U. after    7 cycles
 SCF Done:  E(RB3LYP) =  -533.917957070     A.U. after    7 cycles
 SCF Done:  E(RB3LYP) =  -533.917957114     A.U. after    7 cycles
 Optimization completed.
    -- Stationary point found.
 Normal termination of Gaussian 09 at Fri Feb 16 21:29:00 2018.

 --------------------------------------------------------------------
 #N Geom=AllCheck Guess=TCheck SCRF=Check GenChk RB3LYP/6-31G(d) Freq
 --------------------------------------------------------------------

 Structure from the checkpoint file:  frag38-conf0.chk
 -----------------------------
 Optimization for frag38-conf0
 -----------------------------
 Charge =  0 Multiplicity = 1

                         Standard orientation:
 ---------------------------------------------------------------------
 Center     Atomic      Atomic             Coordinates (Angstroms)
 Number     Number       Type             X           Y           Z
 ---------------------------------------------------------------------
      1          6           0        1.199553    0.055525    0.153330
      2          6           0       -1.870712   -0.843018   -0.079465
      3          6           0       -0.231844    2.186307   -0.165301
      4          6           0       -1.619941    1.644199    0.272718
      5          6           0        0.106824    0.743723   -0.674366
      6          6           0       -1.145979   -2.082901   -0.573224
      7          6           0        3.589059   -0.585414    0.164791
      8          7           0       -1.263412    0.359105   -0.333253
      9          7           0        2.403683   -0.046978   -0.480404
     10          8           0        0.999111   -0.321404    1.301108
     11          8           0       -2.945685   -0.883759    0.504388
     12          1           0       -0.261270    2.935267   -0.959444
     13          1           0        0.404928    2.536784    0.648728
     14          1           0       -1.772218    1.573157    1.354496
     15          1           0       -2.493034    2.122814   -0.182997
     16          1           0        0.326893    0.677765   -1.749678
     17          1           0       -0.448415   -2.420341    0.201222
     18          1           0       -0.576424   -1.904932   -1.492073
     19          1           0       -1.883018   -2.869159   -0.747166
     20          1           0        3.303608   -0.876199    1.176598
     21          1           0        4.387492    0.164088    0.216785
     22          1           0        3.963781   -1.465877   -0.369868
     23          1           0        2.476616    0.272530   -1.435878
 ---------------------------------------------------------------------

 SCF Done:  E(RB3LYP) =  -533.917957114     A.U. after    1 cycles

 Isotropic polarizability for W=    0.000000       89.61 Bohr**3.
 End of Minotr Frequency-dependent properties file   721 does not exist.

                     1                      2                      3
                     A                      A                      A
 Frequencies --    27.4892                56.7195                73.7286
 Red. masses --     4.2730                 4.9370                 1.6679
 Frc consts  --     0.0019                 0.0094                 0.0053
 IR Inten    --     3.0504                 0.5671                 1.7834

                     4                      5                      6
                     A                      A                      A
 Frequencies --    81.3687               119.1090               134.1438
 Red. masses --     1.5529                 1.0949                 2.7020
 Frc consts  --     0.0061                 0.0092                 0.0286
 IR Inten    --     0.4882                 0.1531                 0.1846

                     7                      8                      9
                     A                      A                      A
 Frequencies --   153.8875               177.4010               236.4442
 Red. masses --     2.8620                 3.6676                 3.7585
 Frc consts  --     0.0399                 0.0680                 0.1238
 IR Inten    --     9.0264                12.8637                 1.9767

                    10                     11                     12
                     A                      A                      A
 Frequencies --   261.1123               325.8704               371.5483
 Red. masses --     3.3785                 5.2741                 4.0138
 Frc consts  --     0.1357                 0.3300                 0.3265
 IR Inten    --     7.3013                 5.7133                17.7370

                    13                     14                     15
                     A                      A                      A
 Frequencies --   401.3020               471.3348               572.2062
 Red. masses --     4.5047                 1.1819                 3.9210
 Frc consts  --     0.4274                 0.1547                 0.7564
 IR Inten    --    12.0800                75.2639                 4.9715

                    16                     17                     18
                     A                      A                      A
 Frequencies --   593.6216               646.6839               693.6702
 Red. masses --     2.9413                 3.7863                 2.8539
 Frc consts  --     0.6107                 0.9329                 0.8091
 IR Inten    --     7.5575                 9.3119                 3.6270

                    19                     20                     21
                     A                      A                      A
 Frequencies --   757.1732               803.4581               865.5955
 Red. masses --     4.6375                 1.3398                 2.4413
 Frc consts  --     1.5665                 0.5096                 1.0777
 IR Inten    --     0.9329                 1.4955                 0.1397

                    22                     23                     24
                     A                      A                      A
 Frequencies --   914.3609               953.0309               972.5778
 Red. masses --     3.8876                 2.8061                 2.4652
 Frc consts  --     1.9150                 1.5017                 1.3739
 IR Inten    --     5.8536                 3.5625                 4.6459

                    25                     26                     27
                     A                      A                      A
 Frequencies --   994.8090              1065.2298              1073.5190
 Red. masses --     2.1729                 1.7186                 4.0302
 Frc consts  --     1.2670                 1.1490                 2.7365
 IR Inten    --    11.8314                11.7688                15.5333

                    28                     29                     30
                     A                      A                      A
 Frequencies --  1086.6695              1127.9303              1160.6487
 Red. masses --     1.8195                 2.7264                 1.2752
 Frc consts  --     1.2659                 2.0436                 1.0121
 IR Inten    --     8.6089                 2.7898                 1.1294

                    31                     32                     33
                     A                      A                      A
 Frequencies --  1167.2826              1179.6103              1212.2663
 Red. masses --     1.2321                 1.6434                 3.0264
 Frc consts  --     0.9891                 1.3473                 2.6204
 IR Inten    --     1.3392                39.2806                27.8905

                    34                     35                     36
                     A                      A                      A
 Frequencies --  1220.4911              1236.8589              1267.5246
 Red. masses --     1.2720                 1.7922                 1.3725
 Frc consts  --     1.1164                 1.6154                 1.2992
 IR Inten    --    10.5289               118.2341                 2.4397

                    37                     38                     39
                     A                      A                      A
 Frequencies --  1286.4656              1334.2422              1389.4134
 Red. masses --     1.6832                 1.5361                 1.5371
 Frc consts  --     1.6413                 1.6111                 1.7484
 IR Inten    --    17.8903                 7.1804                32.0592

                    40                     41                     42
                     A                      A                      A
 Frequencies --  1403.7402              1439.1704              1460.9918
 Red. masses --     1.4550                 3.1861                 1.1744
 Frc consts  --     1.6892                 3.8881                 1.4770
 IR Inten    --    36.0990               301.1517                16.6822

                    43                     44                     45
                     A                      A                      A
 Frequencies --  1506.0036              1511.3247              1514.8025
 Red. masses --     1.0573                 1.0839                 1.1352
 Frc consts  --     1.4128                 1.4587                 1.5347
 IR Inten    --     4.8369                 4.6238                11.4485

                    46                     47                     48
                     A                      A                      A
 Frequencies --  1519.6955              1529.7107              1546.7916
 Red. masses --     1.1988                 1.0450                 1.1044
 Frc consts  --     1.6312                 1.4407                 1.5568
 IR Inten    --    70.9269                 7.7437                 4.6978

                    49                     50                     51
                     A                      A                      A
 Frequencies --  1583.2879              1775.8602              1790.1145
 Red. masses --     1.6316                10.7662                 9.1107
 Frc consts  --     2.4099                20.0046                17.2013
 IR Inten    --   145.0426               181.5655               291.1245

                    52                     53                     54
                     A                      A                      A
 Frequencies --  3019.0590              3049.7163              3060.8138
 Red. masses --     1.0854                 1.0367                 1.0374
 Frc consts  --     5.8287                 5.6809                 5.7260
 IR Inten    --    57.8667                60.8505                 7.6466

                    55                     56                     57
                     A                      A                      A
 Frequencies --  3070.6766              3102.8369              3106.6225
 Red. masses --     1.0566                 1.1061                 1.0612
 Frc consts  --     5.8701                 6.2742                 6.0341
 IR Inten    --    40.0982                28.8750                26.4923

                    58                     59                     60
                     A                      A                      A
 Frequencies --  3115.5406              3126.9371              3163.9357
 Red. masses --     1.1097                 1.1010                 1.1102
 Frc consts  --     6.3461                 6.3429                 6.5477
 IR Inten    --    19.2397                11.5299                16.9143

                    61                     62                     63
                     A                      A                      A
 Frequencies --  3165.8500              3177.4767              3623.2721
 Red. masses --     1.1014                 1.0985                 1.0771
 Frc consts  --     6.5040                 6.5347                 8.3315
 IR Inten    --    10.4049                 0.7276                18.8493

 - Thermochemistry -
 -------------------
 Temperature   298.150 Kelvin.  Pressure   1.00000 Atm.
 Atom     1 has atomic number  6 and mass  12.00000

 Molecular mass:   156.08988 amu.
 Principal axes and moments of inertia in atomic units:
                           1         2         3
     Eigenvalues --  1001.941792306.599992880.45960
           X            0.99980  -0.01975  -0.00057
           Y            0.01975   0.99963   0.01866
           Z            0.00020  -0.01867   0.99983
 This molecule is an asymmetric top.
 Rotational symmetry number  1.
 Warning -- assumption of classical behavior for rotation
           may cause significant error
 Rotational temperatures (Kelvin)      0.08645     0.03755     0.03007
 Rotational constants (GHZ):           1.80124     0.78242     0.62655
 Zero-point vibrational energy     507402.2 (Joules/Mol)
                                  121.27204 (Kcal/Mol)
 Warning -- explicit consideration of  16 degrees of freedom as
           vibrations may cause significant error
 Vibrational temperatures:     39.55    81.61   106.08   117.07   171.37
          (Kelvin)            193.00   221.41   255.24   340.19   375.68
                              468.85   534.57   577.38   678.14   823.28
                              854.09   930.43   998.04  1089.40  1156.00
                             1245.40  1315.56  1371.20  1399.32  1431.31
                             1532.63  1544.55  1563.47  1622.84  1669.91
                             1679.46  1697.19  1744.18  1756.01  1779.56
                             1823.68  1850.93  1919.67  1999.05  2019.67
                             2070.64  2102.04  2166.80  2174.46  2179.46
                             2186.50  2200.91  2225.49  2278.00  2555.06
                             2575.57  4343.75  4387.86  4403.82  4418.01
                             4464.28  4469.73  4482.56  4498.96  4552.19
                             4554.95  4571.67  5213.07

 Zero-point correction=                           0.193259 (Hartree/Particle)
 Thermal correction to Energy=                    0.205512
 Thermal correction to Enthalpy=                  0.206456
 Thermal correction to Gibbs Free Energy=         0.153354
 Sum of electronic and zero-point Energies=           -533.724698
 Sum of electronic and thermal Energies=              -533.712445
 Sum of electronic and thermal Enthalpies=            -533.711501
 Sum of electronic and thermal Free Energies=         -533.764603

                     E (Thermal)             CV                S
                      KCal/Mol        Cal/Mol-Kelvin    Cal/Mol-Kelvin
 Total                  128.961             42.253            111.762
 Electronic               0.000              0.000              0.000
 Translational            0.889              2.981             41.045
 Rotational               0.889              2.981             30.277
 Vibrational            127.183             36.291             40.440
 Vibration     1          0.593              1.984              6.003
 Vibration     2          0.596              1.975              4.568
 Vibration     3          0.599              1.966              4.051
 Vibration     4          0.600              1.962              3.858
 Vibration     5          0.609              1.933              3.115
 Vibration     6          0.613              1.919              2.886
 Vibration     7          0.619              1.898              2.624
 Vibration     8          0.628              1.870              2.356
 Vibration     9          0.655              1.785              1.829
 Vibration    10          0.669              1.744              1.654
 Vibration    11          0.710              1.624              1.280
 Vibration    12          0.743              1.531              1.073
 Vibration    13          0.767              1.467              0.958
 Vibration    14          0.828              1.314              0.734
 Vibration    15          0.928              1.091              0.500
 Vibration    16          0.951              1.045              0.461

 Optimization completed.
    -- Stationary point found.
 Normal termination of Gaussian 09 at Fri Feb 16 21:43:55 2018.
