 Gaussian 09, Revision C.01,
 Gaussian 09:  AM64L-G09RevC.01 23-Sep-2011

 ---------------------------------------------------------
 #B3LYP/6-31G* Integral=(Grid=UltraFine) freq Opt pop=none
 ---------------------------------------------------------

 99/9=1/99;
 -----------------------------
 Optimization for frag34-conf0
 -----------------------------
 Charge =  0 Multiplicity = 1

 SCF Done:  E(RB3LYP) =  -1449.58961040     A.U. after   15 cycles
 SCF Done:  E(RB3LYP) =  -1449.59347123     A.U. after   12 cycles
 SCF Done:  E(RB3LYP) =  -1449.59428907     A.U. after   11 cycles
 SCF Done:  E(RB3LYP) =  -1449.59460399     A.U. after   11 cycles
 SCF Done:  E(RB3LYP) =  -1449.59474378     A.U. after   11 cycles
 SCF Done:  E(RB3LYP) =  -1449.59481923     A.U. after   11 cycles
 SCF Done:  E(RB3LYP) =  -1449.59484378     A.U. after   10 cycles
 SCF Done:  E(RB3LYP) =  -1449.59484844     A.U. after   10 cycles
 SCF Done:  E(RB3LYP) =  -1449.59485145     A.U. after    9 cycles
 SCF Done:  E(RB3LYP) =  -1449.59485233     A.U. after    8 cycles
 SCF Done:  E(RB3LYP) =  -1449.59485248     A.U. after    7 cycles
 SCF Done:  E(RB3LYP) =  -1449.59485261     A.U. after    8 cycles
 SCF Done:  E(RB3LYP) =  -1449.59485268     A.U. after    8 cycles
 SCF Done:  E(RB3LYP) =  -1449.59485272     A.U. after    8 cycles
 Optimization completed.
    -- Stationary point found.
 Normal termination of Gaussian 09 at Fri Feb 16 20:42:31 2018.

 --------------------------------------------------------------------
 #N Geom=AllCheck Guess=TCheck SCRF=Check GenChk RB3LYP/6-31G(d) Freq
 --------------------------------------------------------------------

 Structure from the checkpoint file:  frag34-conf0.chk
 -----------------------------
 Optimization for frag34-conf0
 -----------------------------
 Charge =  0 Multiplicity = 1

                         Standard orientation:
 ---------------------------------------------------------------------
 Center     Atomic      Atomic             Coordinates (Angstroms)
 Number     Number       Type             X           Y           Z
 ---------------------------------------------------------------------
      1          6           0       -1.326780   -1.634063    0.056018
      2          6           0        0.051824   -1.533294   -0.104441
      3          6           0       -0.144087    0.879948   -0.283643
      4          6           0       -2.133206   -0.484460    0.053207
      5          6           0        0.635837   -0.278295   -0.268007
      6          6           0       -1.518939    0.773885   -0.120291
      7          6           0        3.087840    0.644176    1.994666
      8          6           0       -4.141958   -1.737320    0.366911
      9          7           0        2.995061   -0.484523    1.059353
     10          8           0        2.869056   -1.272978   -1.313531
     11          8           0        2.692832    1.241206   -0.875606
     12          8           0       -3.475039   -0.490637    0.202915
     13         16           0        2.405239   -0.147822   -0.495418
     14         17           0       -2.504902    2.217872   -0.136180
     15          1           0       -1.776370   -2.612105    0.179131
     16          1           0        0.668381   -2.425571   -0.112017
     17          1           0        0.318834    1.848106   -0.435292
     18          1           0        2.082946    1.029360    2.189520
     19          1           0        3.716542    1.464486    1.629506
     20          1           0        3.490063    0.262001    2.936770
     21          1           0       -5.200160   -1.491583    0.462606
     22          1           0       -3.803565   -2.255226    1.272767
     23          1           0       -3.994617   -2.386423   -0.504883
     24          1           0        3.874053   -0.984239    0.931431
 ---------------------------------------------------------------------

 SCF Done:  E(RB3LYP) =  -1449.59485272     A.U. after    1 cycles

 Isotropic polarizability for W=    0.000000      127.64 Bohr**3.
 End of Minotr Frequency-dependent properties file   721 does not exist.

                     1                      2                      3
                     A                      A                      A
 Frequencies --    19.0803                50.9326                78.9323
 Red. masses --     5.8891                 3.5617                 3.1266
 Frc consts  --     0.0013                 0.0054                 0.0115
 IR Inten    --     1.9795                 2.1593                 0.7026

                     4                      5                      6
                     A                      A                      A
 Frequencies --   121.4421               130.7521               152.2535
 Red. masses --     3.6422                 7.6494                 2.7680
 Frc consts  --     0.0316                 0.0771                 0.0378
 IR Inten    --     4.1409                 1.7228                 0.7883

                     7                      8                      9
                     A                      A                      A
 Frequencies --   182.3955               187.5287               220.9351
 Red. masses --     2.4490                 1.9840                 3.8906
 Frc consts  --     0.0480                 0.0411                 0.1119
 IR Inten    --     1.6482                 0.8853                 2.6271

                    10                     11                     12
                     A                      A                      A
 Frequencies --   240.7143               263.6502               272.7475
 Red. masses --     1.4104                 8.3925                 6.1442
 Frc consts  --     0.0482                 0.3437                 0.2693
 IR Inten    --     0.3300                 1.2445                 0.7697

                    13                     14                     15
                     A                      A                      A
 Frequencies --   277.8333               367.6463               374.8165
 Red. masses --     2.7589                 4.9904                 5.5300
 Frc consts  --     0.1255                 0.3974                 0.4577
 IR Inten    --     1.8891                 1.1323                 3.6557

                    16                     17                     18
                     A                      A                      A
 Frequencies --   414.3193               455.1659               457.5456
 Red. masses --     8.6397                 8.0767                 3.5920
 Frc consts  --     0.8738                 0.9859                 0.4430
 IR Inten    --     5.4465                 9.7028                 1.3790

                    19                     20                     21
                     A                      A                      A
 Frequencies --   483.6906               540.2098               565.1566
 Red. masses --     4.5399                 6.2348                 4.3869
 Frc consts  --     0.6258                 1.0720                 0.8255
 IR Inten    --    34.5077                88.2430                59.3522

                    22                     23                     24
                     A                      A                      A
 Frequencies --   576.5366               624.9813               656.1352
 Red. masses --     3.7289                 3.1926                 6.1649
 Frc consts  --     0.7303                 0.7347                 1.5637
 IR Inten    --    20.8625               132.6865                14.4020

                    25                     26                     27
                     A                      A                      A
 Frequencies --   718.9489               723.5223               817.0760
 Red. masses --     4.5730                 5.6316                 2.2962
 Frc consts  --     1.3927                 1.7369                 0.9032
 IR Inten    --     3.6173                20.7588                89.1724

                    28                     29                     30
                     A                      A                      A
 Frequencies --   823.3149               867.5024               921.6659
 Red. masses --     1.5841                 4.6546                 1.3031
 Frc consts  --     0.6326                 2.0638                 0.6522
 IR Inten    --    17.8849               106.5802                 7.8589

                    31                     32                     33
                     A                      A                      A
 Frequencies --   946.4946              1055.8186              1067.6693
 Red. masses --     1.3094                 6.0692                 3.3788
 Frc consts  --     0.6911                 3.9862                 2.2693
 IR Inten    --     0.9943                13.2412                71.9591

                    34                     35                     36
                     A                      A                      A
 Frequencies --  1094.3061              1098.2116              1142.3122
 Red. masses --     3.0536                 7.2696                 3.0771
 Frc consts  --     2.1544                 5.1658                 2.3657
 IR Inten    --    74.4897                97.4268               143.0759

                    37                     38                     39
                     A                      A                      A
 Frequencies --  1154.2042              1166.7557              1183.5843
 Red. masses --     1.4991                 1.6716                 1.2679
 Frc consts  --     1.1767                 1.3407                 1.0464
 IR Inten    --    61.6786                38.2469                 0.9596

                    40                     41                     42
                     A                      A                      A
 Frequencies --  1184.7497              1219.7340              1288.4206
 Red. masses --     1.3175                 1.3495                 1.5564
 Frc consts  --     1.0896                 1.1829                 1.5223
 IR Inten    --    22.6412                 2.2937                29.3079

                    43                     44                     45
                     A                      A                      A
 Frequencies --  1320.1489              1325.3952              1359.1562
 Red. masses --     7.7496                 3.4912                 7.3560
 Frc consts  --     7.9575                 3.6134                 8.0063
 IR Inten    --   115.0990               229.8398                55.9681

                    46                     47                     48
                     A                      A                      A
 Frequencies --  1426.3840              1431.9658              1476.9358
 Red. masses --     1.3144                 3.3976                 1.1562
 Frc consts  --     1.5757                 4.1048                 1.4860
 IR Inten    --    30.4713                36.0586                 0.4507

                    49                     50                     51
                     A                      A                      A
 Frequencies --  1497.1392              1517.6220              1523.4134
 Red. masses --     1.2849                 1.0420                 1.0475
 Frc consts  --     1.6969                 1.4140                 1.4323
 IR Inten    --    39.4432                 4.0275                 7.1020

                    52                     53                     54
                     A                      A                      A
 Frequencies --  1529.9522              1540.0352              1541.5010
 Red. masses --     1.1343                 1.2127                 1.6373
 Frc consts  --     1.5643                 1.6946                 2.2923
 IR Inten    --    75.3130                34.2069                36.3195

                    55                     56                     57
                     A                      A                      A
 Frequencies --  1617.5780              1642.7086              3038.0183
 Red. masses --     7.0820                 5.9449                 1.0342
 Frc consts  --    10.9179                 9.4519                 5.6239
 IR Inten    --     1.9837                94.3515                48.6339

                    58                     59                     60
                     A                      A                      A
 Frequencies --  3055.4789              3103.2095              3128.1569
 Red. masses --     1.0346                 1.1075                 1.1031
 Frc consts  --     5.6907                 6.2836                 6.3599
 IR Inten    --    35.8207                32.9367                16.6010

                    61                     62                     63
                     A                      A                      A
 Frequencies --  3147.6459              3172.3455              3224.5936
 Red. masses --     1.1046                 1.1007                 1.0880
 Frc consts  --     6.4479                 6.5267                 6.6653
 IR Inten    --    15.4673                16.7617                 1.6609

                    64                     65                     66
                     A                      A                      A
 Frequencies --  3238.1263              3242.5161              3519.0125
 Red. masses --     1.0936                 1.0916                 1.0751
 Frc consts  --     6.7558                 6.7619                 7.8438
 IR Inten    --     3.9187                 5.8461                28.7945

 - Thermochemistry -
 -------------------
 Temperature   298.150 Kelvin.  Pressure   1.00000 Atm.
 Atom     1 has atomic number  6 and mass  12.00000

 Molecular mass:   235.00699 amu.
 Principal axes and moments of inertia in atomic units:
                           1         2         3
     Eigenvalues --  1853.753805869.777876758.33462
           X            0.99930   0.03478   0.01347
           Y           -0.03487   0.99937   0.00640
           Z           -0.01324  -0.00687   0.99989
 This molecule is an asymmetric top.
 Rotational symmetry number  1.
 Warning -- assumption of classical behavior for rotation
           may cause significant error
 Rotational temperatures (Kelvin)      0.04672     0.01476     0.01282
 Rotational constants (GHZ):           0.97356     0.30746     0.26704
 Zero-point vibrational energy     471380.9 (Joules/Mol)
                                  112.66274 (Kcal/Mol)
 Warning -- explicit consideration of  22 degrees of freedom as
           vibrations may cause significant error
 Vibrational temperatures:     27.45    73.28   113.57   174.73   188.12
          (Kelvin)            219.06   262.43   269.81   317.88   346.33
                              379.33   392.42   399.74   528.96   539.28
                              596.11   654.88   658.31   695.92   777.24
                              813.13   829.51   899.21   944.03  1034.41
                             1040.99  1175.59  1184.56  1248.14  1326.07
                             1361.79  1519.09  1536.14  1574.46  1580.08
                             1643.53  1660.64  1678.70  1702.91  1704.59
                             1754.92  1853.75  1899.40  1906.95  1955.52
                             2052.25  2060.28  2124.98  2154.05  2183.52
                             2191.85  2201.26  2215.76  2217.87  2327.33
                             2363.49  4371.03  4396.15  4464.82  4500.71
                             4528.75  4564.29  4639.47  4658.94  4665.25
                             5063.07

 Zero-point correction=                           0.179540 (Hartree/Particle)
 Thermal correction to Energy=                    0.193839
 Thermal correction to Enthalpy=                  0.194783
 Thermal correction to Gibbs Free Energy=         0.136886
 Sum of electronic and zero-point Energies=          -1449.415313
 Sum of electronic and thermal Energies=             -1449.401014
 Sum of electronic and thermal Enthalpies=           -1449.400070
 Sum of electronic and thermal Free Energies=        -1449.457967

                     E (Thermal)             CV                S
                      KCal/Mol        Cal/Mol-Kelvin    Cal/Mol-Kelvin
 Total                  121.636             51.984            121.855
 Electronic               0.000              0.000              0.000
 Translational            0.889              2.981             42.265
 Rotational               0.889              2.981             32.664
 Vibrational            119.858             46.022             46.926
 Vibration     1          0.593              1.986              6.728
 Vibration     2          0.595              1.977              4.781
 Vibration     3          0.600              1.963              3.917
 Vibration     4          0.609              1.931              3.077
 Vibration     5          0.612              1.923              2.935
 Vibration     6          0.619              1.900              2.644
 Vibration     7          0.630              1.864              2.304
 Vibration     8          0.632              1.857              2.252
 Vibration     9          0.648              1.809              1.951
 Vibration    10          0.658              1.778              1.798
 Vibration    11          0.670              1.740              1.637
 Vibration    12          0.676              1.724              1.579
 Vibration    13          0.679              1.714              1.547
 Vibration    14          0.740              1.539              1.090
 Vibration    15          0.746              1.524              1.060
 Vibration    16          0.778              1.439              0.911
 Vibration    17          0.814              1.349              0.780
 Vibration    18          0.816              1.344              0.773
 Vibration    19          0.840              1.286              0.700
 Vibration    20          0.895              1.161              0.565
 Vibration    21          0.921              1.107              0.514
 Vibration    22          0.933              1.082              0.492

 Normal termination of Gaussian 09 at Fri Feb 16 21:03:20 2018.
