 Gaussian 09, Revision C.01,
 Gaussian 09:  AM64L-G09RevC.01 23-Sep-2011

 ----------------------------------------------------------------------
 #HF/6-31G* Geom=AllCheck Guess=Read Pop=(MK,ReadRadii) Integral=(Grid=
 UltraFine) iop(6/33=2)
 ----------------------------------------------------------------------

 Structure from the checkpoint file:  frag34-conf0.chk
 -----------------------------
 Optimization for frag34-conf0
 -----------------------------
 Charge =  0 Multiplicity = 1

                         Standard orientation:
 ---------------------------------------------------------------------
 Center     Atomic      Atomic             Coordinates (Angstroms)
 Number     Number       Type             X           Y           Z
 ---------------------------------------------------------------------
      1          6           0       -1.326780   -1.634063    0.056018
      2          6           0        0.051824   -1.533294   -0.104441
      3          6           0       -0.144087    0.879948   -0.283643
      4          6           0       -2.133206   -0.484460    0.053207
      5          6           0        0.635837   -0.278295   -0.268007
      6          6           0       -1.518939    0.773885   -0.120291
      7          6           0        3.087840    0.644176    1.994666
      8          6           0       -4.141958   -1.737320    0.366911
      9          7           0        2.995061   -0.484523    1.059353
     10          8           0        2.869056   -1.272978   -1.313531
     11          8           0        2.692832    1.241206   -0.875606
     12          8           0       -3.475039   -0.490637    0.202915
     13         16           0        2.405239   -0.147822   -0.495418
     14         17           0       -2.504902    2.217872   -0.136180
     15          1           0       -1.776370   -2.612105    0.179131
     16          1           0        0.668381   -2.425571   -0.112017
     17          1           0        0.318834    1.848106   -0.435292
     18          1           0        2.082946    1.029360    2.189520
     19          1           0        3.716542    1.464486    1.629506
     20          1           0        3.490063    0.262001    2.936770
     21          1           0       -5.200160   -1.491583    0.462606
     22          1           0       -3.803565   -2.255226    1.272767
     23          1           0       -3.994617   -2.386423   -0.504883
     24          1           0        3.874053   -0.984239    0.931431
 ---------------------------------------------------------------------

 SCF Done:  E(RHF) =  -1444.69205977     A.U. after   14 cycles

 The electronic state is 1-A.
 Alpha  occ. eigenvalues -- -104.83200 -92.21502 -20.62121 -20.56132 -20.55882
 Alpha  occ. eigenvalues --  -15.61144 -11.34776 -11.31652 -11.30895 -11.28543
 Alpha  occ. eigenvalues --  -11.28359 -11.28298 -11.27829 -11.26682 -10.56469
 Alpha  occ. eigenvalues --   -9.18572  -8.03414  -8.03067  -8.03065  -6.87155
 Alpha  occ. eigenvalues --   -6.87149  -6.87073  -1.45509  -1.44140  -1.33756
 Alpha  occ. eigenvalues --   -1.23185  -1.20194  -1.13525  -1.06167  -1.02412
 Alpha  occ. eigenvalues --   -0.98273  -0.95471  -0.88923  -0.85797  -0.80726
 Alpha  occ. eigenvalues --   -0.74643  -0.71760  -0.70812  -0.70311  -0.67854
 Alpha  occ. eigenvalues --   -0.66377  -0.64996  -0.63670  -0.61605  -0.60759
 Alpha  occ. eigenvalues --   -0.60262  -0.59207  -0.57024  -0.56696  -0.55195
 Alpha  occ. eigenvalues --   -0.51104  -0.51011  -0.50445  -0.49373  -0.48168
 Alpha  occ. eigenvalues --   -0.47356  -0.46433  -0.45144  -0.42974  -0.36507
 Alpha  occ. eigenvalues --   -0.33894
 Alpha virt. eigenvalues --    0.09749   0.10866   0.18369   0.21502   0.22537
 Alpha virt. eigenvalues --    0.25105   0.25895   0.26434   0.27472   0.27512
 Alpha virt. eigenvalues --    0.28542   0.29275   0.30236   0.30383   0.31511

 Mulliken atomic charges:
              1
     1  C   -0.286342
     2  C   -0.136883
     3  C   -0.140124
     4  C    0.498818
     5  C   -0.347069
     6  C   -0.216750
     7  C   -0.319957
     8  C   -0.198048
     9  N   -0.863114
    10  O   -0.701242
    11  O   -0.697769
    12  O   -0.637876
    13  S    1.679593
    14  Cl   0.039966
    15  H    0.230486
    16  H    0.262705
    17  H    0.290935
    18  H    0.190263
    19  H    0.200737
    20  H    0.193160
    21  H    0.209187
    22  H    0.172183
    23  H    0.174715
    24  H    0.402425
 Sum of Mulliken atomic charges =   0.00000

 Dipole moment (field-independent basis, Debye):
    X=             -2.2539    Y=             -3.2707    Z=              4.3253  Tot=              5.8724
 Quadrupole moment (field-independent basis, Debye-Ang):
   XX=            -89.7241   YY=            -93.6867   ZZ=            -99.4128
   XY=             11.3400   XZ=             13.0957   YZ=             -0.7763

 Normal termination of Gaussian 09 at Sat Feb 17 21:03:06 2018.
