 Gaussian 09, Revision C.01,
 Gaussian 09:  AM64L-G09RevC.01 23-Sep-2011

 ----------------------------------------------------------------------
 #HF/6-31G* Geom=AllCheck Guess=Read Pop=(MK,ReadRadii) Integral=(Grid=
 UltraFine) iop(6/33=2)
 ----------------------------------------------------------------------

 Structure from the checkpoint file:  frag55-conf0.chk
 -----------------------------
 Optimization for frag55-conf0
 -----------------------------
 Charge =  0 Multiplicity = 1

                         Standard orientation:
 ---------------------------------------------------------------------
 Center     Atomic      Atomic             Coordinates (Angstroms)
 Number     Number       Type             X           Y           Z
 ---------------------------------------------------------------------
      1          6           0        1.340015    1.498223    0.063681
      2          6           0        0.594492   -0.694861   -0.583336
      3          6           0        2.606981    0.996957    0.355816
      4          6           0        1.855339   -1.210569   -0.293580
      5          6           0        0.316142    0.667768   -0.407195
      6          6           0        2.866731   -0.364555    0.177783
      7          6           0       -2.891559   -0.276287    0.056123
      8          6           0       -3.828926   -0.618980    1.205495
      9          6           0       -1.065571    1.214046   -0.709251
     10          7           0       -2.088126    0.812670    0.257768
     11          8           0       -2.876281   -0.931887   -0.980702
     12          8           0        4.124421   -0.812902    0.477088
     13          1           0        1.148426    2.560778    0.200929
     14          1           0       -0.188146   -1.352624   -0.951800
     15          1           0        3.401329    1.642135    0.717793
     16          1           0        2.057806   -2.270626   -0.439312
     17          1           0       -4.848882   -0.686556    0.816269
     18          1           0       -3.563229   -1.606488    1.596872
     19          1           0       -3.807549    0.105384    2.025877
     20          1           0       -1.038416    2.308999   -0.744041
     21          1           0       -1.420169    0.854290   -1.678244
     22          1           0       -2.039037    1.209511    1.185768
     23          1           0        4.167765   -1.765640    0.301215
 ---------------------------------------------------------------------

 SCF Done:  E(RHF) =  -551.405326771     A.U. after   14 cycles

 The electronic state is 1-A.
 Alpha  occ. eigenvalues --  -20.59547 -20.52072 -15.58956 -11.35473 -11.30415
 Alpha  occ. eigenvalues --  -11.26911 -11.24277 -11.23970 -11.23909 -11.23550
 Alpha  occ. eigenvalues --  -11.23381 -11.22984  -1.40042  -1.37204  -1.22746
 Alpha  occ. eigenvalues --   -1.14562  -1.03814  -1.01674  -0.99698  -0.91826
 Alpha  occ. eigenvalues --   -0.84449  -0.80683  -0.78389  -0.72961  -0.68947
 Alpha  occ. eigenvalues --   -0.67661  -0.65044  -0.64058  -0.61423  -0.59959
 Alpha  occ. eigenvalues --   -0.58629  -0.58484  -0.58010  -0.57142  -0.55713
 Alpha  occ. eigenvalues --   -0.53303  -0.53168  -0.49693  -0.48568  -0.47353
 Alpha  occ. eigenvalues --   -0.41808  -0.38827  -0.33952  -0.30573
 Alpha virt. eigenvalues --    0.13661   0.15176   0.19692   0.21547   0.21939
 Alpha virt. eigenvalues --    0.24802   0.26581   0.28429   0.29657   0.31353
 Alpha virt. eigenvalues --    0.32224   0.33299   0.33891   0.35213   0.35999

 Mulliken atomic charges:
              1
     1  C   -0.211683
     2  C   -0.207332
     3  C   -0.245661
     4  C   -0.285290
     5  C   -0.002362
     6  C    0.410600
     7  C    0.762495
     8  C   -0.575548
     9  C   -0.164563
    10  N   -0.787675
    11  O   -0.634624
    12  O   -0.762411
    13  H    0.199822
    14  H    0.249917
    15  H    0.218451
    16  H    0.196231
    17  H    0.210536
    18  H    0.205319
    19  H    0.168035
    20  H    0.183995
    21  H    0.233970
    22  H    0.381453
    23  H    0.456325
 Sum of Mulliken atomic charges =   0.00000

 Dipole moment (field-independent basis, Debye):
    X=             -0.1335    Y=              0.8047    Z=              2.6449  Tot=              2.7679
 Quadrupole moment (field-independent basis, Debye-Ang):
   XX=            -74.3333   YY=            -62.1534   ZZ=            -73.2548
   XY=             -9.9539   XZ=            -10.5067   YZ=             -0.7056

 Normal termination of Gaussian 09 at Sat Feb 17 21:07:07 2018.
