 Gaussian 09, Revision C.01,
 Gaussian 09:  AM64L-G09RevC.01 23-Sep-2011

 ---------------------------------------------------------
 #B3LYP/6-31G* Integral=(Grid=UltraFine) freq Opt pop=none
 ---------------------------------------------------------

 99/9=1/99;
 -----------------------------
 Optimization for frag55-conf0
 -----------------------------
 Charge =  0 Multiplicity = 1

 SCF Done:  E(RB3LYP) =  -554.788958668     A.U. after   15 cycles
 SCF Done:  E(RB3LYP) =  -554.790612598     A.U. after   14 cycles
 SCF Done:  E(RB3LYP) =  -554.790724785     A.U. after   12 cycles
 SCF Done:  E(RB3LYP) =  -554.790730056     A.U. after   12 cycles
 SCF Done:  E(RB3LYP) =  -554.790758310     A.U. after    9 cycles
 SCF Done:  E(RB3LYP) =  -554.790787174     A.U. after   11 cycles
 SCF Done:  E(RB3LYP) =  -554.790880697     A.U. after   14 cycles
 SCF Done:  E(RB3LYP) =  -554.790930895     A.U. after   12 cycles
 SCF Done:  E(RB3LYP) =  -554.790955086     A.U. after   12 cycles
 SCF Done:  E(RB3LYP) =  -554.790962991     A.U. after   12 cycles
 SCF Done:  E(RB3LYP) =  -554.792070578     A.U. after   15 cycles
 SCF Done:  E(RB3LYP) =  -554.792330800     A.U. after   13 cycles
 SCF Done:  E(RB3LYP) =  -554.792302410     A.U. after   13 cycles
 SCF Done:  E(RB3LYP) =  -554.792412029     A.U. after   12 cycles
 SCF Done:  E(RB3LYP) =  -554.792428247     A.U. after   11 cycles
 SCF Done:  E(RB3LYP) =  -554.792439279     A.U. after   10 cycles
 SCF Done:  E(RB3LYP) =  -554.792441428     A.U. after   10 cycles
 SCF Done:  E(RB3LYP) =  -554.792441795     A.U. after    8 cycles
 SCF Done:  E(RB3LYP) =  -554.792441822     A.U. after    7 cycles
 Optimization completed.
    -- Stationary point found.
 Normal termination of Gaussian 09 at Fri Feb 16 22:43:38 2018.

 --------------------------------------------------------------------
 #N Geom=AllCheck Guess=TCheck SCRF=Check GenChk RB3LYP/6-31G(d) Freq
 --------------------------------------------------------------------

 Structure from the checkpoint file:  frag55-conf0.chk
 -----------------------------
 Optimization for frag55-conf0
 -----------------------------
 Charge =  0 Multiplicity = 1

                         Standard orientation:
 ---------------------------------------------------------------------
 Center     Atomic      Atomic             Coordinates (Angstroms)
 Number     Number       Type             X           Y           Z
 ---------------------------------------------------------------------
      1          6           0        1.340015    1.498223    0.063681
      2          6           0        0.594492   -0.694861   -0.583336
      3          6           0        2.606981    0.996957    0.355816
      4          6           0        1.855339   -1.210569   -0.293580
      5          6           0        0.316142    0.667768   -0.407195
      6          6           0        2.866731   -0.364555    0.177783
      7          6           0       -2.891559   -0.276287    0.056123
      8          6           0       -3.828926   -0.618980    1.205495
      9          6           0       -1.065571    1.214046   -0.709251
     10          7           0       -2.088126    0.812670    0.257768
     11          8           0       -2.876281   -0.931887   -0.980702
     12          8           0        4.124421   -0.812902    0.477088
     13          1           0        1.148426    2.560778    0.200929
     14          1           0       -0.188146   -1.352624   -0.951800
     15          1           0        3.401329    1.642135    0.717793
     16          1           0        2.057806   -2.270626   -0.439312
     17          1           0       -4.848882   -0.686556    0.816269
     18          1           0       -3.563229   -1.606488    1.596872
     19          1           0       -3.807549    0.105384    2.025877
     20          1           0       -1.038416    2.308999   -0.744041
     21          1           0       -1.420169    0.854290   -1.678244
     22          1           0       -2.039037    1.209511    1.185768
     23          1           0        4.167765   -1.765640    0.301215
 ---------------------------------------------------------------------

 SCF Done:  E(RB3LYP) =  -554.792441822     A.U. after    1 cycles

 Isotropic polarizability for W=    0.000000      102.62 Bohr**3.
 End of Minotr Frequency-dependent properties file   721 does not exist.

                     1                      2                      3
                     A                      A                      A
 Frequencies --    31.1786                47.0470                54.8813
 Red. masses --     3.3390                 1.6823                 5.3433
 Frc consts  --     0.0019                 0.0022                 0.0095
 IR Inten    --     1.8899                 2.4719                14.7380

                     4                      5                      6
                     A                      A                      A
 Frequencies --    64.7059               137.0044               212.0451
 Red. masses --     1.9200                 4.7454                 6.2569
 Frc consts  --     0.0047                 0.0525                 0.1658
 IR Inten    --     0.3331                 2.6435                 4.4686

                     7                      8                      9
                     A                      A                      A
 Frequencies --   250.9805               327.1858               355.8207
 Red. masses --     5.4823                 2.3552                 2.8673
 Frc consts  --     0.2035                 0.1485                 0.2139
 IR Inten    --     0.6662                 4.5417                11.3299

                    10                     11                     12
                     A                      A                      A
 Frequencies --   362.8519               421.0202               424.9099
 Red. masses --     1.2124                 3.5597                 3.1684
 Frc consts  --     0.0940                 0.3718                 0.3370
 IR Inten    --   109.1878                 8.5551                 0.1844

                    13                     14                     15
                     A                      A                      A
 Frequencies --   457.3994               463.8357               501.7640
 Red. masses --     1.4527                 2.5776                 3.7027
 Frc consts  --     0.1791                 0.3267                 0.5493
 IR Inten    --    88.6798                24.7343                15.9443

                    16                     17                     18
                     A                      A                      A
 Frequencies --   572.6006               612.7028               644.7852
 Red. masses --     3.1517                 3.1357                 2.6762
 Frc consts  --     0.6088                 0.6936                 0.6555
 IR Inten    --    27.4315                 0.2741                 3.2577

                    19                     20                     21
                     A                      A                      A
 Frequencies --   656.3381               726.5126               781.6694
 Red. masses --     6.0767                 4.2384                 4.0340
 Frc consts  --     1.5423                 1.3181                 1.4522
 IR Inten    --     0.3720                 1.0113                11.1829

                    22                     23                     24
                     A                      A                      A
 Frequencies --   825.2583               844.4116               857.2004
 Red. masses --     1.3139                 1.8344                 3.0269
 Frc consts  --     0.5272                 0.7706                 1.3104
 IR Inten    --     7.7397                28.6010                 1.2524

                    25                     26                     27
                     A                      A                      A
 Frequencies --   865.1125               952.2082               969.1896
 Red. masses --     3.6709                 1.3076                 1.3081
 Frc consts  --     1.6187                 0.6985                 0.7239
 IR Inten    --    20.6972                 0.3276                 2.1627

                    28                     29                     30
                     A                      A                      A
 Frequencies --   999.8303              1032.5078              1036.5003
 Red. masses --     1.6801                 2.7089                 2.5436
 Frc consts  --     0.9895                 1.7015                 1.6100
 IR Inten    --     2.8945                 2.1451                 6.2822

                    31                     32                     33
                     A                      A                      A
 Frequencies --  1067.3455              1096.1505              1138.8096
 Red. masses --     1.7024                 3.1491                 1.3380
 Frc consts  --     1.1427                 2.2293                 1.0224
 IR Inten    --     6.5705                16.7770                17.5325

                    34                     35                     36
                     A                      A                      A
 Frequencies --  1208.3066              1210.7407              1234.3608
 Red. masses --     1.1637                 1.3664                 2.9246
 Frc consts  --     1.0010                 1.1801                 2.6254
 IR Inten    --    68.9631               127.8128                 0.7711

                    37                     38                     39
                     A                      A                      A
 Frequencies --  1267.7593              1290.8539              1308.4124
 Red. masses --     1.4533                 1.9170                 3.2647
 Frc consts  --     1.3762                 1.8821                 3.2930
 IR Inten    --    20.9981               174.2626                68.0491

                    40                     41                     42
                     A                      A                      A
 Frequencies --  1365.6294              1384.2802              1401.2868
 Red. masses --     1.5644                 2.1907                 1.3444
 Frc consts  --     1.7190                 2.4734                 1.5553
 IR Inten    --    22.9638                24.7710                16.0035

                    43                     44                     45
                     A                      A                      A
 Frequencies --  1425.7113              1489.7133              1500.2109
 Red. masses --     1.2637                 2.6592                 1.0744
 Frc consts  --     1.5134                 3.4770                 1.4247
 IR Inten    --    21.4242                23.9399                20.4592

                    46                     47                     48
                     A                      A                      A
 Frequencies --  1502.3566              1515.5708              1555.5650
 Red. masses --     1.0788                 1.0675                 1.9020
 Frc consts  --     1.4347                 1.4447                 2.7116
 IR Inten    --     2.7717                16.5164               177.8834

                    49                     50                     51
                     A                      A                      A
 Frequencies --  1565.4547              1651.4141              1676.0506
 Red. masses --     2.6140                 5.7509                 5.8209
 Frc consts  --     3.7744                 9.2405                 9.6342
 IR Inten    --   123.8487                11.8690                48.8576

                    52                     53                     54
                     A                      A                      A
 Frequencies --  1776.1249              3063.4140              3067.9931
 Red. masses --     8.9259                 1.0357                 1.0660
 Frc consts  --    16.5901                 5.7268                 5.9120
 IR Inten    --   206.9390                 8.8920                35.6735

                    55                     56                     57
                     A                      A                      A
 Frequencies --  3134.5805              3135.4972              3145.2467
 Red. masses --     1.0997                 1.1018                 1.1020
 Frc consts  --     6.3661                 6.3819                 6.4229
 IR Inten    --     0.5810                15.9807                11.2033

                    58                     59                     60
                     A                      A                      A
 Frequencies --  3165.1056              3173.4731              3205.2964
 Red. masses --     1.0893                 1.0889                 1.0929
 Frc consts  --     6.4292                 6.4611                 6.6154
 IR Inten    --    24.1503                13.6474                 2.5701

                    61                     62                     63
                     A                      A                      A
 Frequencies --  3214.6859              3619.4728              3749.6149
 Red. masses --     1.0928                 1.0775                 1.0659
 Frc consts  --     6.6540                 8.3168                 8.8299
 IR Inten    --     8.9917                14.2790                43.2792

 - Thermochemistry -
 -------------------
 Temperature   298.150 Kelvin.  Pressure   1.00000 Atm.
 Atom     1 has atomic number  6 and mass  12.00000

 Molecular mass:   165.07898 amu.
 Principal axes and moments of inertia in atomic units:
                           1         2         3
     Eigenvalues --   794.607394153.923024475.51639
           X            0.99992  -0.00093  -0.01299
           Y            0.00076   0.99992  -0.01272
           Z            0.01300   0.01270   0.99983
 This molecule is an asymmetric top.
 Rotational symmetry number  1.
 Warning -- assumption of classical behavior for rotation
           may cause significant error
 Rotational temperatures (Kelvin)      0.10900     0.02085     0.01935
 Rotational constants (GHZ):           2.27124     0.43447     0.40325
 Zero-point vibrational energy     495229.7 (Joules/Mol)
                                  118.36275 (Kcal/Mol)
 Warning -- explicit consideration of  17 degrees of freedom as
           vibrations may cause significant error
 Vibrational temperatures:     44.86    67.69    78.96    93.10   197.12
          (Kelvin)            305.09   361.10   470.75   511.95   522.06
                              605.75   611.35   658.09   667.36   721.93
                              823.84   881.54   927.70   944.32  1045.29
                             1124.65  1187.36  1214.92  1233.32  1244.70
                             1370.01  1394.45  1438.53  1485.55  1491.29
                             1535.67  1577.11  1638.49  1738.48  1741.98
                             1775.97  1824.02  1857.25  1882.51  1964.83
                             1991.67  2016.14  2051.28  2143.36  2158.47
                             2161.55  2180.57  2238.11  2252.34  2376.01
                             2411.46  2555.44  4407.56  4414.15  4509.96
                             4511.28  4525.30  4553.88  4565.91  4611.70
                             4625.21  5207.61  5394.85

 Zero-point correction=                           0.188623 (Hartree/Particle)
 Thermal correction to Energy=                    0.200346
 Thermal correction to Enthalpy=                  0.201291
 Thermal correction to Gibbs Free Energy=         0.149096
 Sum of electronic and zero-point Energies=           -554.603819
 Sum of electronic and thermal Energies=              -554.592095
 Sum of electronic and thermal Enthalpies=            -554.591151
 Sum of electronic and thermal Free Energies=         -554.643346

                     E (Thermal)             CV                S
                      KCal/Mol        Cal/Mol-Kelvin    Cal/Mol-Kelvin
 Total                  125.719             43.327            109.853
 Electronic               0.000              0.000              0.000
 Translational            0.889              2.981             41.212
 Rotational               0.889              2.981             31.069
 Vibrational            123.942             37.365             37.572
 Vibration     1          0.594              1.983              5.753
 Vibration     2          0.595              1.979              4.938
 Vibration     3          0.596              1.976              4.633
 Vibration     4          0.597              1.971              4.308
 Vibration     5          0.614              1.916              2.845
 Vibration     6          0.643              1.823              2.026
 Vibration     7          0.663              1.761              1.724
 Vibration     8          0.711              1.621              1.274
 Vibration     9          0.731              1.563              1.140
 Vibration    10          0.737              1.549              1.110
 Vibration    11          0.784              1.425              0.889
 Vibration    12          0.787              1.416              0.875
 Vibration    13          0.816              1.345              0.774
 Vibration    14          0.821              1.330              0.755
 Vibration    15          0.857              1.246              0.654
 Vibration    16          0.929              1.091              0.499
 Vibration    17          0.972              1.005              0.428

 Optimization completed.
    -- Stationary point found.
 Normal termination of Gaussian 09 at Fri Feb 16 22:58:47 2018.
