 Gaussian 09, Revision C.01,
 Gaussian 09:  AM64L-G09RevC.01 23-Sep-2011

 ---------------------------------------------------------
 #B3LYP/6-31G* Integral=(Grid=UltraFine) freq Opt pop=none
 ---------------------------------------------------------

 99/9=1/99;
 ----------------------------
 Optimization for frag8-conf0
 ----------------------------
 Charge =  0 Multiplicity = 1

 SCF Done:  E(RB3LYP) =  -518.890949276     A.U. after   15 cycles
 SCF Done:  E(RB3LYP) =  -518.892425931     A.U. after   12 cycles
 SCF Done:  E(RB3LYP) =  -518.892526328     A.U. after   10 cycles
 SCF Done:  E(RB3LYP) =  -518.892528120     A.U. after   10 cycles
 SCF Done:  E(RB3LYP) =  -518.892559130     A.U. after    9 cycles
 SCF Done:  E(RB3LYP) =  -518.892591273     A.U. after   11 cycles
 SCF Done:  E(RB3LYP) =  -518.892696951     A.U. after   13 cycles
 SCF Done:  E(RB3LYP) =  -518.892742639     A.U. after   10 cycles
 SCF Done:  E(RB3LYP) =  -518.892777136     A.U. after   12 cycles
 SCF Done:  E(RB3LYP) =  -518.892784183     A.U. after   10 cycles
 SCF Done:  E(RB3LYP) =  -518.893891940     A.U. after   13 cycles
 SCF Done:  E(RB3LYP) =  -518.893884593     A.U. after   15 cycles
 SCF Done:  E(RB3LYP) =  -518.894074161     A.U. after   13 cycles
 SCF Done:  E(RB3LYP) =  -518.894099279     A.U. after   12 cycles
 SCF Done:  E(RB3LYP) =  -518.894079348     A.U. after   12 cycles
 SCF Done:  E(RB3LYP) =  -518.894096782     A.U. after   11 cycles
 SCF Done:  E(RB3LYP) =  -518.894108203     A.U. after   10 cycles
 SCF Done:  E(RB3LYP) =  -518.894108496     A.U. after    8 cycles
 SCF Done:  E(RB3LYP) =  -518.894108523     A.U. after    7 cycles
 Optimization completed.
    -- Stationary point found.
 Normal termination of Gaussian 09 at Fri Feb 16 18:41:18 2018.

 --------------------------------------------------------------------
 #N Geom=AllCheck Guess=TCheck SCRF=Check GenChk RB3LYP/6-31G(d) Freq
 --------------------------------------------------------------------

 Structure from the checkpoint file:  frag8-conf0.chk
 ----------------------------
 Optimization for frag8-conf0
 ----------------------------
 Charge =  0 Multiplicity = 1

                         Standard orientation:
 ---------------------------------------------------------------------
 Center     Atomic      Atomic             Coordinates (Angstroms)
 Number     Number       Type             X           Y           Z
 ---------------------------------------------------------------------
      1          6           0       -1.545857    1.853533    0.094885
      2          6           0       -2.721474    1.140105    0.342702
      3          6           0       -0.394130    1.190983   -0.322499
      4          6           0       -1.595227   -0.900575   -0.241827
      5          6           0       -2.765040   -0.247721    0.172808
      6          6           0       -0.411820   -0.201050   -0.492127
      7          6           0        2.937798   -0.051550    0.069964
      8          6           0       -4.042175   -1.022739    0.403595
      9          6           0        3.887701   -0.133397    1.256527
     10          6           0        0.845637   -0.931754   -0.926139
     11          7           0        1.897685   -0.941464    0.088427
     12          8           0        3.109413    0.752778   -0.839564
     13          1           0       -1.531650    2.932433    0.227250
     14          1           0       -3.614965    1.667866    0.669195
     15          1           0        0.522265    1.740519   -0.520492
     16          1           0       -1.611603   -1.981806   -0.375125
     17          1           0       -4.609579   -1.142665   -0.529174
     18          1           0       -3.839008   -2.028065    0.788843
     19          1           0       -4.696869   -0.512891    1.118244
     20          1           0        4.908904   -0.241276    0.879894
     21          1           0        3.842727    0.809450    1.811403
     22          1           0        3.671092   -0.958980    1.941873
     23          1           0        0.607488   -1.968260   -1.191047
     24          1           0        1.287165   -0.450359   -1.802405
     25          1           0        1.732452   -1.472952    0.931731
 ---------------------------------------------------------------------

 SCF Done:  E(RB3LYP) =  -518.894108523     A.U. after    1 cycles

 Isotropic polarizability for W=    0.000000      110.19 Bohr**3.
 End of Minotr Frequency-dependent properties file   721 does not exist.

                     1                      2                      3
                     A                      A                      A
 Frequencies --    25.3495                30.1994                44.1919
 Red. masses --     3.4408                 1.0384                 1.7003
 Frc consts  --     0.0013                 0.0006                 0.0020
 IR Inten    --     1.1711                 0.6571                 0.5518

                     4                      5                      6
                     A                      A                      A
 Frequencies --    53.0820                71.3912               173.6485
 Red. masses --     3.2086                 2.0662                 4.2361
 Frc consts  --     0.0053                 0.0062                 0.0753
 IR Inten    --    12.6847                 1.1371                 3.0963

                     7                      8                      9
                     A                      A                      A
 Frequencies --   198.4826               215.4777               294.6244
 Red. masses --     4.7600                 3.1741                 3.6376
 Frc consts  --     0.1105                 0.0868                 0.1860
 IR Inten    --     4.6224                 0.8423                 1.5478

                    10                     11                     12
                     A                      A                      A
 Frequencies --   314.4014               387.7735               438.9898
 Red. masses --     2.4501                 2.5085                 2.7753
 Frc consts  --     0.1427                 0.2222                 0.3151
 IR Inten    --     3.1133                 1.4199                 3.5106

                    13                     14                     15
                     A                      A                      A
 Frequencies --   458.9939               471.7222               516.7463
 Red. masses --     1.5222                 2.1270                 4.5290
 Frc consts  --     0.1889                 0.2789                 0.7125
 IR Inten    --    75.8742                40.0244                 6.0961

                    16                     17                     18
                     A                      A                      A
 Frequencies --   537.4407               616.4850               619.1866
 Red. masses --     4.5351                 2.7915                 4.1581
 Frc consts  --     0.7718                 0.6251                 0.9393
 IR Inten    --     1.9098                 6.1640                 4.9382

                    19                     20                     21
                     A                      A                      A
 Frequencies --   654.3926               722.0158               754.7256
 Red. masses --     3.1962                 2.8687                 3.0427
 Frc consts  --     0.8064                 0.8811                 1.0212
 IR Inten    --     1.5785                 8.2112                12.0865

                    22                     23                     24
                     A                      A                      A
 Frequencies --   814.9770               861.1725               904.7443
 Red. masses --     1.5483                 2.6456                 1.3450
 Frc consts  --     0.6059                 1.1560                 0.6487
 IR Inten    --    20.2660                 4.1732                 2.2273

                    25                     26                     27
                     A                      A                      A
 Frequencies --   924.9511               933.1303               989.6292
 Red. masses --     2.2642                 1.6602                 1.2981
 Frc consts  --     1.1413                 0.8517                 0.7490
 IR Inten    --     1.5069                 1.8382                 0.8611

                    28                     29                     30
                     A                      A                      A
 Frequencies --  1001.1734              1016.6494              1019.9363
 Red. masses --     1.6580                 4.6308                 1.7867
 Frc consts  --     0.9791                 2.8200                 1.0951
 IR Inten    --     4.0488                 0.3571                 0.9691

                    31                     32                     33
                     A                      A                      A
 Frequencies --  1052.9397              1067.5732              1075.5663
 Red. masses --     2.1205                 1.7087                 1.5227
 Frc consts  --     1.3851                 1.1474                 1.0379
 IR Inten    --     8.1739                 7.0636                 8.7715

                    34                     35                     36
                     A                      A                      A
 Frequencies --  1101.8681              1132.2490              1190.7192
 Red. masses --     3.2137                 1.6081                 1.6477
 Frc consts  --     2.2989                 1.2147                 1.3764
 IR Inten    --    11.8741                 3.9943                 1.5834

                    37                     38                     39
                     A                      A                      A
 Frequencies --  1209.5979              1265.8570              1277.5497
 Red. masses --     1.1398                 1.5243                 3.4338
 Frc consts  --     0.9826                 1.4391                 3.3020
 IR Inten    --     0.8034                19.7486                 7.5708

                    40                     41                     42
                     A                      A                      A
 Frequencies --  1290.4874              1351.9673              1363.3411
 Red. masses --     1.7613                 1.6871                 2.3105
 Frc consts  --     1.7281                 1.8168                 2.5303
 IR Inten    --   141.2049                13.1703                 1.2657

                    43                     44                     45
                     A                      A                      A
 Frequencies --  1398.1834              1425.8461              1442.6403
 Red. masses --     1.3251                 1.2628                 1.2436
 Frc consts  --     1.5263                 1.5127                 1.5249
 IR Inten    --    12.3662                23.1075                 0.0445

                    46                     47                     48
                     A                      A                      A
 Frequencies --  1482.2161              1500.5787              1503.5034
 Red. masses --     2.2713                 1.0599                 1.0962
 Frc consts  --     2.9399                 1.4062                 1.4600
 IR Inten    --     9.9576                15.2890                 7.1398

                    49                     50                     51
                     A                      A                      A
 Frequencies --  1515.7885              1518.0851              1525.4598
 Red. masses --     1.0674                 1.0495                 1.2773
 Frc consts  --     1.4449                 1.4250                 1.7512
 IR Inten    --    16.5862                 4.7310                13.8345

                    52                     53                     54
                     A                      A                      A
 Frequencies --  1542.1984              1556.9477              1647.3945
 Red. masses --     2.0338                 1.8701                 5.2878
 Frc consts  --     2.8499                 2.6710                 8.4552
 IR Inten    --     7.8764               211.7047                 3.2628

                    55                     56                     57
                     A                      A                      A
 Frequencies --  1667.4926              1778.3714              3039.8381
 Red. masses --     5.6429                 8.9754                 1.0404
 Frc consts  --     9.2444                16.7244                 5.6643
 IR Inten    --    15.1425               212.8610                32.4722

                    58                     59                     60
                     A                      A                      A
 Frequencies --  3063.5443              3065.4805              3096.0546
 Red. masses --     1.0358                 1.0662                 1.0959
 Frc consts  --     5.7278                 5.9032                 6.1895
 IR Inten    --     8.5625                34.7196                21.8100

                    61                     62                     63
                     A                      A                      A
 Frequencies --  3122.6446              3133.6229              3135.6381
 Red. masses --     1.1025                 1.0984                 1.1026
 Frc consts  --     6.3341                 6.3547                 6.3872
 IR Inten    --    16.6950                 0.9445                15.8264

                    64                     65                     66
                     A                      A                      A
 Frequencies --  3145.3700              3158.6300              3174.9817
 Red. masses --     1.1019                 1.0894                 1.0869
 Frc consts  --     6.4231                 6.4040                 6.4555
 IR Inten    --    10.9788                22.7937                 9.8258

                    67                     68                     69
                     A                      A                      A
 Frequencies --  3191.9608              3207.1946              3620.7397
 Red. masses --     1.0911                 1.0954                 1.0775
 Frc consts  --     6.5499                 6.6385                 8.3224
 IR Inten    --    18.9660                10.0335                14.2631

 - Thermochemistry -
 -------------------
 Temperature   298.150 Kelvin.  Pressure   1.00000 Atm.
 Atom     1 has atomic number  6 and mass  12.00000

 Molecular mass:   163.09971 amu.
 Principal axes and moments of inertia in atomic units:
                           1         2         3
     Eigenvalues --   811.726244067.093844409.28335
           X            0.99996   0.00338   0.00852
           Y           -0.00349   0.99992   0.01206
           Z           -0.00848  -0.01209   0.99989
 This molecule is an asymmetric top.
 Rotational symmetry number  1.
 Warning -- assumption of classical behavior for rotation
           may cause significant error
 Rotational temperatures (Kelvin)      0.10670     0.02130     0.01964
 Rotational constants (GHZ):           2.22334     0.44374     0.40930
 Zero-point vibrational energy     556896.4 (Joules/Mol)
                                  133.10143 (Kcal/Mol)
 Warning -- explicit consideration of  18 degrees of freedom as
           vibrations may cause significant error
 Vibrational temperatures:     36.47    43.45    63.58    76.37   102.72
          (Kelvin)            249.84   285.57   310.02   423.90   452.35
                              557.92   631.61   660.39   678.70   743.48
                              773.26   886.98   890.87   941.52  1038.82
                             1085.88  1172.57  1239.03  1301.72  1330.80
                             1342.56  1423.85  1440.46  1462.73  1467.46
                             1514.94  1536.00  1547.50  1585.34  1629.05
                             1713.18  1740.34  1821.28  1838.11  1856.72
                             1945.18  1961.54  2011.67  2051.47  2075.64
                             2132.58  2159.00  2163.20  2180.88  2184.18
                             2194.79  2218.88  2240.10  2370.23  2399.15
                             2558.68  4373.64  4407.75  4410.54  4454.53
                             4492.78  4508.58  4511.48  4525.48  4544.56
                             4568.08  4592.51  4614.43  5209.43

 Zero-point correction=                           0.212111 (Hartree/Particle)
 Thermal correction to Energy=                    0.224558
 Thermal correction to Enthalpy=                  0.225502
 Thermal correction to Gibbs Free Energy=         0.170632
 Sum of electronic and zero-point Energies=           -518.681998
 Sum of electronic and thermal Energies=              -518.669551
 Sum of electronic and thermal Enthalpies=            -518.668607
 Sum of electronic and thermal Free Energies=         -518.723476

                     E (Thermal)             CV                S
                      KCal/Mol        Cal/Mol-Kelvin    Cal/Mol-Kelvin
 Total                  140.912             44.705            115.483
 Electronic               0.000              0.000              0.000
 Translational            0.889              2.981             41.176
 Rotational               0.889              2.981             31.055
 Vibrational            139.135             38.744             43.252
 Vibration     1          0.593              1.985              6.164
 Vibration     2          0.594              1.984              5.816
 Vibration     3          0.595              1.980              5.062
 Vibration     4          0.596              1.976              4.699
 Vibration     5          0.598              1.968              4.115
 Vibration     6          0.627              1.875              2.396
 Vibration     7          0.637              1.842              2.147
 Vibration     8          0.645              1.817              1.997
 Vibration     9          0.689              1.684              1.447
 Vibration    10          0.702              1.646              1.339
 Vibration    11          0.756              1.496              1.009
 Vibration    12          0.799              1.385              0.830
 Vibration    13          0.817              1.341              0.769
 Vibration    14          0.829              1.313              0.733
 Vibration    15          0.872              1.213              0.618
 Vibration    16          0.892              1.167              0.571
 Vibration    17          0.976              0.997              0.422
 Vibration    18          0.979              0.991              0.418

 Normal termination of Gaussian 09 at Fri Feb 16 18:59:59 2018.
