 Gaussian 09, Revision C.01,
 Gaussian 09:  AM64L-G09RevC.01 23-Sep-2011

 ----------------------------------------------------------------------
 #HF/6-31G* Geom=AllCheck Guess=Read Pop=(MK,ReadRadii) Integral=(Grid=
 UltraFine) iop(6/33=2)
 ----------------------------------------------------------------------

 Structure from the checkpoint file:  frag8-conf0.chk
 ----------------------------
 Optimization for frag8-conf0
 ----------------------------
 Charge =  0 Multiplicity = 1

                         Standard orientation:
 ---------------------------------------------------------------------
 Center     Atomic      Atomic             Coordinates (Angstroms)
 Number     Number       Type             X           Y           Z
 ---------------------------------------------------------------------
      1          6           0       -1.545857    1.853533    0.094885
      2          6           0       -2.721474    1.140105    0.342702
      3          6           0       -0.394130    1.190983   -0.322499
      4          6           0       -1.595227   -0.900575   -0.241827
      5          6           0       -2.765040   -0.247721    0.172808
      6          6           0       -0.411820   -0.201050   -0.492127
      7          6           0        2.937798   -0.051550    0.069964
      8          6           0       -4.042175   -1.022739    0.403595
      9          6           0        3.887701   -0.133397    1.256527
     10          6           0        0.845637   -0.931754   -0.926139
     11          7           0        1.897685   -0.941464    0.088427
     12          8           0        3.109413    0.752778   -0.839564
     13          1           0       -1.531650    2.932433    0.227250
     14          1           0       -3.614965    1.667866    0.669195
     15          1           0        0.522265    1.740519   -0.520492
     16          1           0       -1.611603   -1.981806   -0.375125
     17          1           0       -4.609579   -1.142665   -0.529174
     18          1           0       -3.839008   -2.028065    0.788843
     19          1           0       -4.696869   -0.512891    1.118244
     20          1           0        4.908904   -0.241276    0.879894
     21          1           0        3.842727    0.809450    1.811403
     22          1           0        3.671092   -0.958980    1.941873
     23          1           0        0.607488   -1.968260   -1.191047
     24          1           0        1.287165   -0.450359   -1.802405
     25          1           0        1.732452   -1.472952    0.931731
 ---------------------------------------------------------------------

 SCF Done:  E(RHF) =  -515.588025301     A.U. after   14 cycles

 The electronic state is 1-A.
 Alpha  occ. eigenvalues --  -20.51945 -15.58909 -11.35370 -11.26780 -11.24224
 Alpha  occ. eigenvalues --  -11.23873 -11.23867 -11.23270 -11.23045 -11.22882
 Alpha  occ. eigenvalues --  -11.22727 -11.22529  -1.37103  -1.22700  -1.14844
 Alpha  occ. eigenvalues --   -1.05177  -1.02682  -0.99892  -0.93240  -0.91840
 Alpha  occ. eigenvalues --   -0.81483  -0.78804  -0.78006  -0.68848  -0.67923
 Alpha  occ. eigenvalues --   -0.64830  -0.64027  -0.62506  -0.60576  -0.57768
 Alpha  occ. eigenvalues --   -0.57488  -0.57130  -0.56167  -0.55557  -0.54910
 Alpha  occ. eigenvalues --   -0.52952  -0.51040  -0.48525  -0.47848  -0.47687
 Alpha  occ. eigenvalues --   -0.41705  -0.38730  -0.32774  -0.31590
 Alpha virt. eigenvalues --    0.13927   0.14472   0.19830   0.21846   0.24149
 Alpha virt. eigenvalues --    0.26377   0.26755   0.27995   0.29630   0.30676
 Alpha virt. eigenvalues --    0.31337   0.32616   0.33275   0.33424   0.34444

 Mulliken atomic charges:
              1
     1  C   -0.190795
     2  C   -0.231263
     3  C   -0.235638
     4  C   -0.259729
     5  C    0.051292
     6  C    0.033809
     7  C    0.763159
     8  C   -0.508789
     9  C   -0.575871
    10  C   -0.165632
    11  N   -0.789511
    12  O   -0.632388
    13  H    0.203262
    14  H    0.195830
    15  H    0.238868
    16  H    0.190005
    17  H    0.180737
    18  H    0.170743
    19  H    0.173826
    20  H    0.210254
    21  H    0.206095
    22  H    0.167454
    23  H    0.183971
    24  H    0.238063
    25  H    0.382248
 Sum of Mulliken atomic charges =   0.00000

 Dipole moment (field-independent basis, Debye):
    X=             -1.3853    Y=             -2.4640    Z=              2.7485  Tot=              3.9427
 Quadrupole moment (field-independent basis, Debye-Ang):
   XX=            -71.0789   YY=            -67.8685   ZZ=            -73.8016
   XY=             -5.6306   XZ=              7.6703   YZ=              1.7718

 Normal termination of Gaussian 09 at Sat Feb 17 20:56:34 2018.
