 Gaussian 09, Revision C.01,
 Gaussian 09:  AM64L-G09RevC.01 23-Sep-2011

 ---------------------------------------------------------
 #B3LYP/6-31G* Integral=(Grid=UltraFine) freq Opt pop=none
 ---------------------------------------------------------

 99/9=1/99;
 -----------------------------
 Optimization for frag26-conf2
 -----------------------------
 Charge =  0 Multiplicity = 1

 SCF Done:  E(RB3LYP) =  -1205.03014592     A.U. after   15 cycles
 SCF Done:  E(RB3LYP) =  -1205.03756827     A.U. after   13 cycles
 SCF Done:  E(RB3LYP) =  -1205.03728736     A.U. after   13 cycles
 SCF Done:  E(RB3LYP) =  -1205.03872634     A.U. after   13 cycles
 SCF Done:  E(RB3LYP) =  -1205.04003465     A.U. after   13 cycles
 SCF Done:  E(RB3LYP) =  -1205.04109963     A.U. after   12 cycles
 SCF Done:  E(RB3LYP) =  -1205.04263552     A.U. after   15 cycles
 SCF Done:  E(RB3LYP) =  -1205.04634927     A.U. after   13 cycles
 SCF Done:  E(RB3LYP) =  -1205.04753777     A.U. after   13 cycles
 SCF Done:  E(RB3LYP) =  -1205.04832629     A.U. after   13 cycles
 SCF Done:  E(RB3LYP) =  -1205.05225970     A.U. after   11 cycles
 SCF Done:  E(RB3LYP) =  -1205.05227165     A.U. after   11 cycles
 SCF Done:  E(RB3LYP) =  -1205.05228048     A.U. after   10 cycles
 SCF Done:  E(RB3LYP) =  -1205.05226858     A.U. after   11 cycles
 SCF Done:  E(RB3LYP) =  -1205.05228513     A.U. after   11 cycles
 SCF Done:  E(RB3LYP) =  -1205.05228526     A.U. after    9 cycles
 SCF Done:  E(RB3LYP) =  -1205.05228739     A.U. after    9 cycles
 SCF Done:  E(RB3LYP) =  -1205.05228773     A.U. after    8 cycles
 SCF Done:  E(RB3LYP) =  -1205.05228783     A.U. after    8 cycles
 Optimization completed.
    -- Stationary point found.
 Normal termination of Gaussian 09 at Fri Feb 16 22:57:27 2018.

 --------------------------------------------------------------------
 #N Geom=AllCheck Guess=TCheck SCRF=Check GenChk RB3LYP/6-31G(d) Freq
 --------------------------------------------------------------------

 Structure from the checkpoint file:  frag26-conf2.chk
 -----------------------------
 Optimization for frag26-conf2
 -----------------------------
 Charge =  0 Multiplicity = 1

                         Standard orientation:
 ---------------------------------------------------------------------
 Center     Atomic      Atomic             Coordinates (Angstroms)
 Number     Number       Type             X           Y           Z
 ---------------------------------------------------------------------
      1          6           0        0.759822    1.482992   -0.584373
      2          6           0       -4.490941   -1.344975    0.415051
      3          6           0       -4.165858   -0.918675   -1.024771
      4          6           0       -3.238274   -1.313127    1.304052
      5          6           0       -3.480497    0.457241   -1.056377
      6          6           0       -2.545331    0.059831    1.255955
      7          6           0       -2.206483    0.521132   -0.182272
      8          6           0        1.192635    3.794926    0.014774
      9          6           0        0.843988    2.140086    1.833799
     10          6           0        2.570133   -3.105869    0.094452
     11          6           0       -1.041673   -0.266106   -0.822530
     12          6           0        0.349233    0.037397   -0.227377
     13          7           0        1.329668   -0.882514   -0.849877
     14          7           0        0.905102    2.415709    0.398627
     15          8           0        0.926230    1.736395   -1.780256
     16          8           0        2.551063   -0.820524    1.418656
     17          8           0        3.894836   -0.977692   -0.753460
     18         16           0        2.708659   -1.310791    0.040287
     19          1           0       -5.244474   -0.659403    0.831080
     20          1           0       -4.940441   -2.346153    0.426345
     21          1           0       -3.515632   -1.672175   -1.491317
     22          1           0       -5.082319   -0.889480   -1.627799
     23          1           0       -3.501991   -1.555587    2.341456
     24          1           0       -2.540943   -2.096919    0.975901
     25          1           0       -3.236836    0.739690   -2.088589
     26          1           0       -4.192070    1.210404   -0.687502
     27          1           0       -3.216519    0.805893    1.705827
     28          1           0       -1.645395    0.045104    1.884514
     29          1           0       -1.902196    1.576612   -0.134863
     30          1           0        0.450611    4.472044    0.455372
     31          1           0        1.158193    3.866302   -1.071081
     32          1           0        2.188843    4.091577    0.365937
     33          1           0        1.290324    1.173105    2.069517
     34          1           0       -0.183005    2.183792    2.220073
     35          1           0        1.430983    2.904377    2.350743
     36          1           0        3.431819   -3.478387    0.653244
     37          1           0        1.640582   -3.372534    0.599600
     38          1           0        2.581810   -3.489176   -0.927011
     39          1           0       -1.200590   -1.346229   -0.737669
     40          1           0       -0.994999   -0.032949   -1.892957
     41          1           0        0.353359   -0.161717    0.841733
     42          1           0        1.631400   -0.502465   -1.750219
 ---------------------------------------------------------------------

 SCF Done:  E(RB3LYP) =  -1205.05228783     A.U. after    1 cycles

 Isotropic polarizability for W=    0.000000      161.59 Bohr**3.
 End of Minotr Frequency-dependent properties file   721 does not exist.

                     1                      2                      3
                     A                      A                      A
 Frequencies --    15.7051                24.0738                32.4014
 Red. masses --     4.7581                 3.5684                 4.7764
 Frc consts  --     0.0007                 0.0012                 0.0030
 IR Inten    --     5.1101                 0.6062                 1.2224

                     4                      5                      6
                     A                      A                      A
 Frequencies --    48.5699                55.0342                77.1351
 Red. masses --     4.2407                 3.6591                 1.7331
 Frc consts  --     0.0059                 0.0065                 0.0061
 IR Inten    --     2.9010                 1.3330                 1.2711

                     7                      8                      9
                     A                      A                      A
 Frequencies --    84.7384               104.7107               116.4587
 Red. masses --     3.7680                 1.5165                 2.0114
 Frc consts  --     0.0159                 0.0098                 0.0161
 IR Inten    --     1.7416                 1.1418                 1.1464

                    10                     11                     12
                     A                      A                      A
 Frequencies --   143.3572               162.1537               201.9781
 Red. masses --     1.9882                 3.4393                 3.1218
 Frc consts  --     0.0241                 0.0533                 0.0750
 IR Inten    --     0.5038                 0.5324                 4.3109

                    13                     14                     15
                     A                      A                      A
 Frequencies --   211.6972               219.7437               237.8177
 Red. masses --     3.2736                 1.1987                 2.7122
 Frc consts  --     0.0864                 0.0341                 0.0904
 IR Inten    --     0.7028                 0.7756                 7.2018

                    16                     17                     18
                     A                      A                      A
 Frequencies --   247.3807               265.7538               293.7646
 Red. masses --     2.6266                 2.6941                 2.6076
 Frc consts  --     0.0947                 0.1121                 0.1326
 IR Inten    --     0.6284                 0.8759                 0.7070

                    19                     20                     21
                     A                      A                      A
 Frequencies --   314.4294               342.4915               357.6592
 Red. masses --     2.9718                 3.2628                 2.1851
 Frc consts  --     0.1731                 0.2255                 0.1647
 IR Inten    --     3.6243                15.0298                 1.7330

                    22                     23                     24
                     A                      A                      A
 Frequencies --   378.5027               403.7452               416.5103
 Red. masses --     3.7738                 2.2626                 3.0878
 Frc consts  --     0.3185                 0.2173                 0.3156
 IR Inten    --    16.4461                 4.4194                13.1726

                    25                     26                     27
                     A                      A                      A
 Frequencies --   433.4193               462.3910               467.6007
 Red. masses --     3.0727                 4.0975                 2.5795
 Frc consts  --     0.3401                 0.5162                 0.3323
 IR Inten    --    11.1768                 1.9590                 3.3048

                    28                     29                     30
                     A                      A                      A
 Frequencies --   487.8551               509.1720               521.2354
 Red. masses --     3.7244                 3.8946                 3.8182
 Frc consts  --     0.5223                 0.5949                 0.6112
 IR Inten    --    31.1821                13.0443                22.3912

                    31                     32                     33
                     A                      A                      A
 Frequencies --   616.4798               622.6059               674.8555
 Red. masses --     3.2869                 2.3189                 3.2916
 Frc consts  --     0.7360                 0.5296                 0.8832
 IR Inten    --     0.3728                 2.7130                88.3334

                    34                     35                     36
                     A                      A                      A
 Frequencies --   737.6834               767.0452               777.1976
 Red. masses --     4.0275                 2.6948                 5.4334
 Frc consts  --     1.2913                 0.9342                 1.9337
 IR Inten    --    19.6390                30.3847                 9.6300

                    37                     38                     39
                     A                      A                      A
 Frequencies --   792.0960               799.7942               842.9615
 Red. masses --     2.9889                 1.6349                 2.2000
 Frc consts  --     1.1049                 0.6162                 0.9211
 IR Inten    --    21.3444                 2.4241                 3.8889

                    40                     41                     42
                     A                      A                      A
 Frequencies --   858.6341               873.7124               918.8303
 Red. masses --     1.7065                 2.3982                 2.2266
 Frc consts  --     0.7412                 1.0786                 1.1075
 IR Inten    --    14.4118                 1.9437               120.7285

                    43                     44                     45
                     A                      A                      A
 Frequencies --   950.7645               951.5890               980.9951
 Red. masses --     1.7720                 2.0164                 2.1769
 Frc consts  --     0.9437                 1.0758                 1.2343
 IR Inten    --    15.7202                 7.2781                29.2919

                    46                     47                     48
                     A                      A                      A
 Frequencies --   994.1328               998.8074              1001.2574
 Red. masses --     1.6771                 1.3934                 1.6376
 Frc consts  --     0.9766                 0.8190                 0.9673
 IR Inten    --    25.9252                 1.1759                58.3820

                    49                     50                     51
                     A                      A                      A
 Frequencies --  1042.5372              1046.7962              1058.3297
 Red. masses --     2.0070                 2.1875                 1.9929
 Frc consts  --     1.2852                 1.4123                 1.3151
 IR Inten    --     2.0407                 4.2500                 4.4205

                    52                     53                     54
                     A                      A                      A
 Frequencies --  1073.2667              1082.0768              1093.2446
 Red. masses --     2.6294                 3.1022                 1.5192
 Frc consts  --     1.7845                 2.1401                 1.0698
 IR Inten    --    11.8724                37.5784                11.7992

                    55                     56                     57
                     A                      A                      A
 Frequencies --  1103.7683              1125.4305              1138.7554
 Red. masses --     1.7672                 7.1185                 1.2290
 Frc consts  --     1.2685                 5.3123                 0.9390
 IR Inten    --     6.5318               103.3079                 7.9961

                    58                     59                     60
                     A                      A                      A
 Frequencies --  1144.1653              1154.7962              1174.7891
 Red. masses --     1.1109                 1.3759                 1.7568
 Frc consts  --     0.8569                 1.0811                 1.4285
 IR Inten    --     2.2963                40.2043                26.6921

                    61                     62                     63
                     A                      A                      A
 Frequencies --  1178.8075              1184.8867              1229.6730
 Red. masses --     1.5833                 1.7252                 1.3905
 Frc consts  --     1.2963                 1.4270                 1.2388
 IR Inten    --     1.7515                37.8104                 6.5347

                    64                     65                     66
                     A                      A                      A
 Frequencies --  1280.5531              1289.0953              1294.3380
 Red. masses --     1.3232                 4.4174                 1.4082
 Frc consts  --     1.2784                 4.3250                 1.3900
 IR Inten    --    15.8695                33.6546                22.3761

                    67                     68                     69
                     A                      A                      A
 Frequencies --  1305.3868              1311.6380              1319.9569
 Red. masses --     1.2946                 1.2681                 2.0269
 Frc consts  --     1.2998                 1.2854                 2.0806
 IR Inten    --    10.5127                11.3652                73.6975

                    70                     71                     72
                     A                      A                      A
 Frequencies --  1342.0087              1347.7482              1370.1432
 Red. masses --     1.5744                 1.6524                 1.3168
 Frc consts  --     1.6706                 1.7685                 1.4564
 IR Inten    --    42.8881                18.1267                 0.2123

                    73                     74                     75
                     A                      A                      A
 Frequencies --  1382.2199              1383.3554              1393.5675
 Red. masses --     1.2243                 1.3421                 1.5343
 Frc consts  --     1.3782                 1.5133                 1.7556
 IR Inten    --     7.5843                 3.3270                 1.5480

                    76                     77                     78
                     A                      A                      A
 Frequencies --  1397.9652              1405.0068              1411.3776
 Red. masses --     1.4003                 1.4257                 1.4142
 Frc consts  --     1.6124                 1.6582                 1.6598
 IR Inten    --     0.2611                 4.3812                 2.0407

                    79                     80                     81
                     A                      A                      A
 Frequencies --  1426.6420              1431.7392              1453.1810
 Red. masses --     1.4353                 1.8314                 1.1608
 Frc consts  --     1.7212                 2.2118                 1.4443
 IR Inten    --     1.4168               145.2430                10.8440

                    82                     83                     84
                     A                      A                      A
 Frequencies --  1476.5047              1484.3403              1487.6236
 Red. masses --     1.4615                 1.0497                 1.1041
 Frc consts  --     1.8772                 1.3627                 1.4397
 IR Inten    --    34.9958                 4.9570                 2.0320

                    85                     86                     87
                     A                      A                      A
 Frequencies --  1499.6373              1509.2650              1515.3355
 Red. masses --     1.1957                 1.0963                 1.0891
 Frc consts  --     1.5843                 1.4713                 1.4734
 IR Inten    --    16.9578                 4.4888                 1.4241

                    88                     89                     90
                     A                      A                      A
 Frequencies --  1516.7464              1524.1392              1524.9446
 Red. masses --     1.0947                 1.0516                 1.0824
 Frc consts  --     1.4837                 1.4393                 1.4830
 IR Inten    --     5.9292                 9.3344                 8.4771

                    91                     92                     93
                     A                      A                      A
 Frequencies --  1525.9140              1535.8694              1538.7712
 Red. masses --     1.0915                 1.0490                 1.0970
 Frc consts  --     1.4974                 1.4579                 1.5305
 IR Inten    --     2.4013                 8.2632                 4.2353

                    94                     95                     96
                     A                      A                      A
 Frequencies --  1543.7912              1556.1644              1737.7734
 Red. masses --     1.0468                 1.2803                 8.5376
 Frc consts  --     1.4699                 1.8268                15.1905
 IR Inten    --    15.1380                40.8849               238.8393

                    97                     98                     99
                     A                      A                      A
 Frequencies --  3014.9917              3019.3489              3022.0306
 Red. masses --     1.0753                 1.0687                 1.0665
 Frc consts  --     5.7592                 5.7400                 5.7387
 IR Inten    --     7.2727                22.7838                20.8306

                   100                    101                    102
                     A                      A                      A
 Frequencies --  3029.9648              3031.8445              3035.0358
 Red. masses --     1.0630                 1.0635                 1.0723
 Frc consts  --     5.7500                 5.7595                 5.8198
 IR Inten    --    12.1130                11.8274                68.7815

                   103                    104                    105
                     A                      A                      A
 Frequencies --  3038.1146              3044.3909              3061.9847
 Red. masses --     1.0433                 1.0425                 1.0644
 Frc consts  --     5.6737                 5.6929                 5.8796
 IR Inten    --    33.9226                67.3852                13.4129

                   106                    107                    108
                     A                      A                      A
 Frequencies --  3064.8651              3068.5435              3070.1352
 Red. masses --     1.0956                 1.0945                 1.0910
 Frc consts  --     6.0633                 6.0721                 6.0590
 IR Inten    --    75.9482                72.1304                30.3266

                   109                    110                    111
                     A                      A                      A
 Frequencies --  3071.5255              3078.9139              3087.9367
 Red. masses --     1.1032                 1.1033                 1.0294
 Frc consts  --     6.1323                 6.1624                 5.7833
 IR Inten    --     8.2695               116.2874                 0.5510

                   112                    113                    114
                     A                      A                      A
 Frequencies --  3093.0123              3107.4989              3117.9568
 Red. masses --     1.1053                 1.1020                 1.0928
 Frc consts  --     6.2299                 6.2696                 6.2596
 IR Inten    --    32.1574                23.9077                21.0812

                   115                    116                    117
                     A                      A                      A
 Frequencies --  3164.5415              3180.0796              3186.9343
 Red. masses --     1.0986                 1.0880                 1.1065
 Frc consts  --     6.4820                 6.4825                 6.6216
 IR Inten    --     2.0234                 4.8536                 1.0125

                   118                    119                    120
                     A                      A                      A
 Frequencies --  3195.9869              3196.2746              3475.5832
 Red. masses --     1.0969                 1.1081                 1.0737
 Frc consts  --     6.6010                 6.6697                 7.6419
 IR Inten    --     1.0088                 1.1233                50.4152

 - Thermochemistry -
 -------------------
 Temperature   298.150 Kelvin.  Pressure   1.00000 Atm.
 Atom     1 has atomic number  6 and mass  12.00000

 Molecular mass:   276.15076 amu.
 Principal axes and moments of inertia in atomic units:
                           1         2         3
     Eigenvalues --  3757.242137426.133229220.69505
           X            0.99985   0.01717   0.00259
           Y           -0.01722   0.99966   0.01946
           Z           -0.00225  -0.01950   0.99981
 This molecule is an asymmetric top.
 Rotational symmetry number  1.
 Warning -- assumption of classical behavior for rotation
           may cause significant error
 Rotational temperatures (Kelvin)      0.02305     0.01166     0.00939
 Rotational constants (GHZ):           0.48034     0.24303     0.19573
 Zero-point vibrational energy     966633.4 (Joules/Mol)
                                  231.03093 (Kcal/Mol)
 Warning -- explicit consideration of  31 degrees of freedom as
           vibrations may cause significant error
 Vibrational temperatures:     22.60    34.64    46.62    69.88    79.18
          (Kelvin)            110.98   121.92   150.66   167.56   206.26
                              233.30   290.60   304.58   316.16   342.17
                              355.93   382.36   422.66   452.39   492.77
                              514.59   544.58   580.90   599.26   623.59
                              665.28   672.77   701.91   732.58   749.94
                              886.98   895.79   970.97  1061.36  1103.61
                             1118.21  1139.65  1150.72  1212.83  1235.38
                             1257.08  1321.99  1367.94  1369.12  1411.43
                             1430.33  1437.06  1440.58  1499.98  1506.10
                             1522.70  1544.19  1556.87  1572.93  1588.07
                             1619.24  1638.41  1646.20  1661.49  1690.26
                             1696.04  1704.79  1769.22  1842.43  1854.72
                             1862.26  1878.16  1887.15  1899.12  1930.85
                             1939.11  1971.33  1988.70  1990.34  2005.03
                             2011.36  2021.49  2030.66  2052.62  2059.95
                             2090.80  2124.36  2135.63  2140.36  2157.64
                             2171.49  2180.23  2182.26  2192.89  2194.05
                             2195.45  2209.77  2213.95  2221.17  2238.97
                             2500.27  4337.90  4344.16  4348.02  4359.44
                             4362.14  4366.73  4371.16  4380.19  4405.51
                             4409.65  4414.94  4417.23  4419.23  4429.86
                             4442.85  4450.15  4470.99  4486.04  4553.06
                             4575.42  4585.28  4598.31  4598.72  5000.58

 Zero-point correction=                           0.368171 (Hartree/Particle)
 Thermal correction to Energy=                    0.388510
 Thermal correction to Enthalpy=                  0.389454
 Thermal correction to Gibbs Free Energy=         0.316598
 Sum of electronic and zero-point Energies=          -1204.684117
 Sum of electronic and thermal Energies=             -1204.663778
 Sum of electronic and thermal Enthalpies=           -1204.662834
 Sum of electronic and thermal Free Energies=        -1204.735690

                     E (Thermal)             CV                S
                      KCal/Mol        Cal/Mol-Kelvin    Cal/Mol-Kelvin
 Total                  243.793             74.956            153.337
 Electronic               0.000              0.000              0.000
 Translational            0.889              2.981             42.746
 Rotational               0.889              2.981             33.908
 Vibrational            242.016             68.994             76.683
 Vibration     1          0.593              1.986              7.114
 Vibration     2          0.593              1.985              6.266
 Vibration     3          0.594              1.983              5.677
 Vibration     4          0.595              1.978              4.875
 Vibration     5          0.596              1.976              4.628
 Vibration     6          0.599              1.964              3.962
 Vibration     7          0.601              1.960              3.778
 Vibration     8          0.605              1.945              3.365
 Vibration     9          0.608              1.936              3.158
 Vibration    10          0.616              1.910              2.759
 Vibration    11          0.622              1.889              2.525
 Vibration    12          0.639              1.837              2.115
 Vibration    13          0.643              1.823              2.029
 Vibration    14          0.647              1.811              1.961
 Vibration    15          0.656              1.783              1.819
 Vibration    16          0.661              1.767              1.749
 Vibration    17          0.672              1.736              1.624
 Vibration    18          0.689              1.685              1.452
 Vibration    19          0.702              1.646              1.339
 Vibration    20          0.722              1.591              1.201
 Vibration    21          0.733              1.560              1.132
 Vibration    22          0.749              1.516              1.045
 Vibration    23          0.769              1.462              0.949
 Vibration    24          0.780              1.434              0.904
 Vibration    25          0.794              1.397              0.848
 Vibration    26          0.820              1.333              0.759
 Vibration    27          0.825              1.322              0.744
 Vibration    28          0.844              1.277              0.689
 Vibration    29          0.864              1.230              0.636
 Vibration    30          0.876              1.203              0.607
 Vibration    31          0.976              0.997              0.422

 Optimization completed.
    -- Stationary point found.
 Normal termination of Gaussian 09 at Sat Feb 17 00:28:40 2018.
