 Gaussian 09, Revision C.01,
 Gaussian 09:  AM64L-G09RevC.01 23-Sep-2011

 ----------------------------------------------------------------------
 #HF/6-31G* Geom=AllCheck Guess=Read Pop=(MK,ReadRadii) Integral=(Grid=
 UltraFine) iop(6/33=2)
 ----------------------------------------------------------------------

 Structure from the checkpoint file:  frag26-conf2.chk
 -----------------------------
 Optimization for frag26-conf2
 -----------------------------
 Charge =  0 Multiplicity = 1

                         Standard orientation:
 ---------------------------------------------------------------------
 Center     Atomic      Atomic             Coordinates (Angstroms)
 Number     Number       Type             X           Y           Z
 ---------------------------------------------------------------------
      1          6           0        0.759822    1.482992   -0.584373
      2          6           0       -4.490941   -1.344975    0.415051
      3          6           0       -4.165858   -0.918675   -1.024771
      4          6           0       -3.238274   -1.313127    1.304052
      5          6           0       -3.480497    0.457241   -1.056377
      6          6           0       -2.545331    0.059831    1.255955
      7          6           0       -2.206483    0.521132   -0.182272
      8          6           0        1.192635    3.794926    0.014774
      9          6           0        0.843988    2.140086    1.833799
     10          6           0        2.570133   -3.105869    0.094452
     11          6           0       -1.041673   -0.266106   -0.822530
     12          6           0        0.349233    0.037397   -0.227377
     13          7           0        1.329668   -0.882514   -0.849877
     14          7           0        0.905102    2.415709    0.398627
     15          8           0        0.926230    1.736395   -1.780256
     16          8           0        2.551063   -0.820524    1.418656
     17          8           0        3.894836   -0.977692   -0.753460
     18         16           0        2.708659   -1.310791    0.040287
     19          1           0       -5.244474   -0.659403    0.831080
     20          1           0       -4.940441   -2.346153    0.426345
     21          1           0       -3.515632   -1.672175   -1.491317
     22          1           0       -5.082319   -0.889480   -1.627799
     23          1           0       -3.501991   -1.555587    2.341456
     24          1           0       -2.540943   -2.096919    0.975901
     25          1           0       -3.236836    0.739690   -2.088589
     26          1           0       -4.192070    1.210404   -0.687502
     27          1           0       -3.216519    0.805893    1.705827
     28          1           0       -1.645395    0.045104    1.884514
     29          1           0       -1.902196    1.576612   -0.134863
     30          1           0        0.450611    4.472044    0.455372
     31          1           0        1.158193    3.866302   -1.071081
     32          1           0        2.188843    4.091577    0.365937
     33          1           0        1.290324    1.173105    2.069517
     34          1           0       -0.183005    2.183792    2.220073
     35          1           0        1.430983    2.904377    2.350743
     36          1           0        3.431819   -3.478387    0.653244
     37          1           0        1.640582   -3.372534    0.599600
     38          1           0        2.581810   -3.489176   -0.927011
     39          1           0       -1.200590   -1.346229   -0.737669
     40          1           0       -0.994999   -0.032949   -1.892957
     41          1           0        0.353359   -0.161717    0.841733
     42          1           0        1.631400   -0.502465   -1.750219
 ---------------------------------------------------------------------

 SCF Done:  E(RHF) =  -1199.32273260     A.U. after   13 cycles

 The electronic state is 1-A.
 Alpha  occ. eigenvalues --  -92.21371 -20.56368 -20.55915 -20.52619 -15.60829
 Alpha  occ. eigenvalues --  -15.60056 -11.35662 -11.29248 -11.27932 -11.26735
 Alpha  occ. eigenvalues --  -11.25746 -11.23687 -11.23369 -11.22848 -11.22612
 Alpha  occ. eigenvalues --  -11.22419 -11.22386 -11.22304  -9.18517  -6.87103
 Alpha  occ. eigenvalues --   -6.87087  -6.86982  -1.45548  -1.38008  -1.33860
 Alpha  occ. eigenvalues --   -1.24515  -1.23452  -1.12780  -1.06279  -1.03452
 Alpha  occ. eigenvalues --   -1.00720  -0.99260  -0.97214  -0.94274  -0.88098
 Alpha  occ. eigenvalues --   -0.83798  -0.82889  -0.81861  -0.75431  -0.73966
 Alpha  occ. eigenvalues --   -0.72302  -0.69322  -0.67767  -0.66717  -0.66388
 Alpha  occ. eigenvalues --   -0.64824  -0.64728  -0.62594  -0.62212  -0.60843
 Alpha  occ. eigenvalues --   -0.60345  -0.59640  -0.59078  -0.57937  -0.56697
 Alpha  occ. eigenvalues --   -0.56386  -0.56376  -0.54380  -0.52988  -0.52873
 Alpha  occ. eigenvalues --   -0.52625  -0.51573  -0.50516  -0.50375  -0.49349
 Alpha  occ. eigenvalues --   -0.48527  -0.47970  -0.46933  -0.46044  -0.45647
 Alpha  occ. eigenvalues --   -0.43548  -0.43220  -0.42716  -0.40627  -0.37227
 Alpha virt. eigenvalues --    0.17273   0.20485   0.21654   0.22744   0.23410
 Alpha virt. eigenvalues --    0.24354   0.24886   0.25766   0.26546   0.27090
 Alpha virt. eigenvalues --    0.27374   0.27639   0.28839   0.29023   0.29578

 Mulliken atomic charges:
              1
     1  C    0.789043
     2  C   -0.309457
     3  C   -0.316166
     4  C   -0.312898
     5  C   -0.312838
     6  C   -0.317546
     7  C   -0.185430
     8  C   -0.297804
     9  C   -0.319782
    10  C   -0.692685
    11  C   -0.307159
    12  C   -0.074507
    13  N   -0.898861
    14  N   -0.666103
    15  O   -0.659321
    16  O   -0.713580
    17  O   -0.676923
    18  S    1.603112
    19  H    0.151915
    20  H    0.163125
    21  H    0.155194
    22  H    0.165539
    23  H    0.165220
    24  H    0.150061
    25  H    0.170872
    26  H    0.157593
    27  H    0.160105
    28  H    0.157442
    29  H    0.173755
    30  H    0.165110
    31  H    0.237207
    32  H    0.174413
    33  H    0.238588
    34  H    0.171609
    35  H    0.187797
    36  H    0.231541
    37  H    0.220792
    38  H    0.227551
    39  H    0.179848
    40  H    0.198135
    41  H    0.234222
    42  H    0.431271
 Sum of Mulliken atomic charges =   0.00000

 Dipole moment (field-independent basis, Debye):
    X=             -3.8254    Y=             -1.5215    Z=              2.2490  Tot=              4.6911
 Quadrupole moment (field-independent basis, Debye-Ang):
   XX=           -134.1304   YY=           -102.7161   ZZ=           -125.4504
   XY=             -4.0949   XZ=              2.4459   YZ=              7.3301

 1\1\GINC-NODE036\SP\RHF\6-31G(d)\C12H24N2O3S1\WULSDORT\17-Feb-2018\0\\
 #HF/6-31G* Geom=AllCheck Guess=Read Pop=(MK,ReadRadii) Integral=(Grid=
 UltraFine) iop(6/33=2)\\Optimization for frag26-conf2\\0,1\C,0,3.70634
 07359,-1.4264712086,3.4710925532\C,0,0.9254550602,-4.5248683081,-0.914
 494511\C,0,1.7349666813,-5.3167129046,0.1238567036\C,0,0.6490592471,-3
 .0920222372,-0.4337977885\C,0,3.0327071288,-4.5811835091,0.4963198636\
 C,0,1.9484142212,-2.3652492518,-0.0452442012\C,0,2.7903949141,-3.13875
 21478,0.9982464165\C,0,5.7281158972,-0.1244488103,3.1416861018\C,0,3.6

 Normal termination of Gaussian 09 at Sat Feb 17 21:02:38 2018.
