 Gaussian 09, Revision C.01,
 Gaussian 09:  AM64L-G09RevC.01 23-Sep-2011

 ---------------------------------------------------------
 #B3LYP/6-31G* Integral=(Grid=UltraFine) freq Opt pop=none
 ---------------------------------------------------------

 99/9=1/99;
 -----------------------------
 Optimization for frag43-conf1
 -----------------------------
 Charge =  1 Multiplicity = 1

 SCF Done:  E(RB3LYP) =  -786.230690378     A.U. after   15 cycles
 SCF Done:  E(RB3LYP) =  -786.241823541     A.U. after   13 cycles
 SCF Done:  E(RB3LYP) =  -786.245678752     A.U. after   13 cycles
 SCF Done:  E(RB3LYP) =  -786.248312647     A.U. after   14 cycles
 SCF Done:  E(RB3LYP) =  -786.249356430     A.U. after   15 cycles
 SCF Done:  E(RB3LYP) =  -786.250627486     A.U. after   13 cycles
 SCF Done:  E(RB3LYP) =  -786.250594717     A.U. after   15 cycles
 SCF Done:  E(RB3LYP) =  -786.251126191     A.U. after   14 cycles
 SCF Done:  E(RB3LYP) =  -786.252090844     A.U. after   15 cycles
 SCF Done:  E(RB3LYP) =  -786.251794469     A.U. after   15 cycles
 SCF Done:  E(RB3LYP) =  -786.259007355     A.U. after   10 cycles
 SCF Done:  E(RB3LYP) =  -786.259008689     A.U. after    9 cycles
 SCF Done:  E(RB3LYP) =  -786.259008971     A.U. after    7 cycles
 SCF Done:  E(RB3LYP) =  -786.259009121     A.U. after    7 cycles
 SCF Done:  E(RB3LYP) =  -786.259009224     A.U. after    7 cycles
 SCF Done:  E(RB3LYP) =  -786.259009256     A.U. after    7 cycles
 SCF Done:  E(RB3LYP) =  -786.259009285     A.U. after    7 cycles
 SCF Done:  E(RB3LYP) =  -786.259009315     A.U. after    8 cycles
 SCF Done:  E(RB3LYP) =  -786.259009318     A.U. after    7 cycles
 Optimization completed.
    -- Stationary point found.
 Normal termination of Gaussian 09 at Sat Feb 17 00:07:32 2018.

 --------------------------------------------------------------------
 #N Geom=AllCheck Guess=TCheck SCRF=Check GenChk RB3LYP/6-31G(d) Freq
 --------------------------------------------------------------------

 Structure from the checkpoint file:  frag43-conf1.chk
 -----------------------------
 Optimization for frag43-conf1
 -----------------------------
 Charge =  1 Multiplicity = 1

                         Standard orientation:
 ---------------------------------------------------------------------
 Center     Atomic      Atomic             Coordinates (Angstroms)
 Number     Number       Type             X           Y           Z
 ---------------------------------------------------------------------
      1          6           0        3.571396    0.265103    0.009881
      2          6           0       -0.874698    1.684171   -0.308134
      3          6           0       -1.262100   -3.716988   -0.348531
      4          6           0       -1.935854   -2.619532   -1.183982
      5          6           0       -1.016710   -3.251354    1.093648
      6          6           0       -1.131165   -1.308658   -1.155583
      7          6           0       -0.213205   -1.940220    1.138206
      8          6           0       -0.895967   -0.839433    0.297207
      9          6           0       -2.679556    3.297119   -0.451319
     10          6           0       -2.469707    1.937239    1.600696
     11          6           0        2.346688    1.177273    0.246284
     12          6           0       -0.141800    0.511903    0.401239
     13          7           0        4.776070    0.812688    0.233410
     14          7           0       -1.941943    2.256128    0.275281
     15          7           0        1.179668    0.442199   -0.324523
     16          8           0        3.377691   -0.895997   -0.338318
     17          8           0       -0.436420    2.013538   -1.421866
     18          1           0       -1.878550   -4.622701   -0.350026
     19          1           0       -0.303583   -3.991827   -0.811856
     20          1           0       -2.057828   -2.946889   -2.222310
     21          1           0       -2.946692   -2.429216   -0.796073
     22          1           0       -1.980653   -3.097880    1.599194
     23          1           0       -0.486046   -4.022735    1.662563
     24          1           0       -0.166416   -1.485245   -1.655914
     25          1           0       -1.645334   -0.533064   -1.734955
     26          1           0       -0.099849   -1.601606    2.177237
     27          1           0        0.802246   -2.136043    0.760303
     28          1           0       -1.882637   -0.653976    0.743327
     29          1           0       -3.729581    3.001690   -0.547570
     30          1           0       -2.240188    3.423598   -1.438501
     31          1           0       -2.626698    4.241669    0.100628
     32          1           0       -2.576660    2.862051    2.177243
     33          1           0       -1.811034    1.267585    2.151900
     34          1           0       -3.456500    1.467557    1.516867
     35          1           0        2.434721    2.153013   -0.236878
     36          1           0        2.196569    1.325183    1.319337
     37          1           0        0.076517    0.733044    1.448577
     38          1           0        4.905304    1.782815    0.484839
     39          1           0        5.600477    0.237022    0.111651
     40          1           0        0.935004    0.859253   -1.253497
     41          1           0        1.526736   -0.530474   -0.451468
 ---------------------------------------------------------------------

 SCF Done:  E(RB3LYP) =  -786.259009318     A.U. after    1 cycles

 Isotropic polarizability for W=    0.000000      148.18 Bohr**3.
 End of Minotr Frequency-dependent properties file   721 does not exist.

                     1                      2                      3
                     A                      A                      A
 Frequencies --    24.2479                34.6737                52.6078
 Red. masses --     4.5715                 3.7422                 2.9980
 Frc consts  --     0.0016                 0.0027                 0.0049
 IR Inten    --     1.5086                 3.0993                 0.1603

                     4                      5                      6
                     A                      A                      A
 Frequencies --    63.8422                69.7875                75.9903
 Red. masses --     2.9458                 5.0347                 2.3044
 Frc consts  --     0.0071                 0.0144                 0.0078
 IR Inten    --     1.7335                 8.3439                 1.5636

                     7                      8                      9
                     A                      A                      A
 Frequencies --   106.2682               119.0765               134.8735
 Red. masses --     1.3682                 1.7705                 1.8226
 Frc consts  --     0.0091                 0.0148                 0.0195
 IR Inten    --     1.2540                 2.1556                 2.4230

                    10                     11                     12
                     A                      A                      A
 Frequencies --   149.3840               174.7404               225.1150
 Red. masses --     3.2556                 2.9336                 2.6829
 Frc consts  --     0.0428                 0.0528                 0.0801
 IR Inten    --     2.9104                 0.5350                 0.4934

                    13                     14                     15
                     A                      A                      A
 Frequencies --   229.2552               235.7375               264.0790
 Red. masses --     3.1655                 3.5000                 2.6516
 Frc consts  --     0.0980                 0.1146                 0.1089
 IR Inten    --     6.0657                15.1042                 3.5745

                    16                     17                     18
                     A                      A                      A
 Frequencies --   287.5674               299.3115               341.2259
 Red. masses --     2.9973                 2.6336                 1.8260
 Frc consts  --     0.1460                 0.1390                 0.1253
 IR Inten    --     2.7656                 2.9942                 0.5583

                    19                     20                     21
                     A                      A                      A
 Frequencies --   359.6074               400.9478               416.8001
 Red. masses --     1.2678                 2.8439                 2.8984
 Frc consts  --     0.0966                 0.2694                 0.2967
 IR Inten    --   191.7984                15.7596                27.1536

                    22                     23                     24
                     A                      A                      A
 Frequencies --   435.0059               443.5167               459.1701
 Red. masses --     2.8589                 3.0541                 2.7705
 Frc consts  --     0.3187                 0.3540                 0.3442
 IR Inten    --    10.6270                 3.7368                57.7117

                    25                     26                     27
                     A                      A                      A
 Frequencies --   491.7506               507.8159               532.2138
 Red. masses --     1.8253                 1.5954                 2.6272
 Frc consts  --     0.2601                 0.2424                 0.4384
 IR Inten    --     6.0745                43.5192                67.8426

                    28                     29                     30
                     A                      A                      A
 Frequencies --   605.8770               631.5037               648.7096
 Red. masses --     4.1379                 4.3772                 2.0255
 Frc consts  --     0.8949                 1.0285                 0.5022
 IR Inten    --    18.4091                15.6650                 9.8476

                    31                     32                     33
                     A                      A                      A
 Frequencies --   672.5995               733.7016               785.1678
 Red. masses --     2.5066                 3.7931                 2.7885
 Frc consts  --     0.6681                 1.2031                 1.0128
 IR Inten    --    18.1838                 4.5853                36.3315

                    34                     35                     36
                     A                      A                      A
 Frequencies --   795.0823               804.3580               835.3632
 Red. masses --     2.0670                 1.8478                 3.1880
 Frc consts  --     0.7699                 0.7044                 1.3108
 IR Inten    --     3.7707                 4.1605                 2.6661

                    37                     38                     39
                     A                      A                      A
 Frequencies --   854.2037               884.0723               912.1877
 Red. masses --     2.5020                 1.7822                 1.8490
 Frc consts  --     1.0756                 0.8207                 0.9065
 IR Inten    --     2.0255                 6.0725                 5.8780

                    40                     41                     42
                     A                      A                      A
 Frequencies --   928.4934               949.0965               960.7951
 Red. masses --     1.5394                 2.1037                 3.0660
 Frc consts  --     0.7819                 1.1165                 1.6676
 IR Inten    --     1.9151                 6.5213                 1.7110

                    43                     44                     45
                     A                      A                      A
 Frequencies --   983.8082              1017.0201              1045.1349
 Red. masses --     2.5329                 2.0306                 2.0343
 Frc consts  --     1.4444                 1.2375                 1.3092
 IR Inten    --     2.1010                 6.0682                 6.0383

                    46                     47                     48
                     A                      A                      A
 Frequencies --  1051.6688              1064.9281              1077.6438
 Red. masses --     2.0885                 3.9854                 1.6476
 Frc consts  --     1.3610                 2.6629                 1.1274
 IR Inten    --    21.6533                26.0945                 4.8086

                    49                     50                     51
                     A                      A                      A
 Frequencies --  1084.1461              1089.6417              1101.2828
 Red. masses --     1.4411                 2.2936                 1.9815
 Frc consts  --     0.9980                 1.6045                 1.4159
 IR Inten    --     6.1265                 3.1610                 0.0622

                    52                     53                     54
                     A                      A                      A
 Frequencies --  1110.4374              1120.9620              1132.4147
 Red. masses --     1.4044                 1.9044                 1.2246
 Frc consts  --     1.0203                 1.4099                 0.9253
 IR Inten    --     2.2238                 6.9846                 0.3190

                    55                     56                     57
                     A                      A                      A
 Frequencies --  1173.0564              1182.4599              1186.6638
 Red. masses --     2.2093                 1.3732                 1.8326
 Frc consts  --     1.7912                 1.1313                 1.5205
 IR Inten    --    46.1404                 5.4102                19.6980

                    58                     59                     60
                     A                      A                      A
 Frequencies --  1209.6149              1242.5111              1269.5263
 Red. masses --     1.4010                 1.1756                 3.2429
 Frc consts  --     1.2078                 1.0694                 3.0794
 IR Inten    --     2.8807                 6.7961                52.6982

                    61                     62                     63
                     A                      A                      A
 Frequencies --  1280.2781              1289.9990              1306.4899
 Red. masses --     1.2994                 1.3696                 1.2822
 Frc consts  --     1.2549                 1.3428                 1.2895
 IR Inten    --    10.9727                 2.0978                 1.8746

                    64                     65                     66
                     A                      A                      A
 Frequencies --  1313.5044              1319.6265              1347.1059
 Red. masses --     1.3466                 1.3401                 1.2472
 Frc consts  --     1.3688                 1.3749                 1.3335
 IR Inten    --     4.7860                 0.5578                 7.3041

                    67                     68                     69
                     A                      A                      A
 Frequencies --  1356.2593              1376.4931              1388.9916
 Red. masses --     1.3072                 1.2721                 1.3550
 Frc consts  --     1.4167                 1.4201                 1.5403
 IR Inten    --    12.1370                13.5029                 9.9151

                    70                     71                     72
                     A                      A                      A
 Frequencies --  1392.7853              1397.9621              1404.9221
 Red. masses --     1.5865                 1.3724                 1.4713
 Frc consts  --     1.8132                 1.5803                 1.7111
 IR Inten    --   199.7570                27.5379                 0.2126

                    73                     74                     75
                     A                      A                      A
 Frequencies --  1411.3574              1421.4538              1459.8040
 Red. masses --     1.5358                 1.4378                 1.8571
 Frc consts  --     1.8024                 1.7116                 2.3317
 IR Inten    --    88.3090                27.2578                61.4713

                    76                     77                     78
                     A                      A                      A
 Frequencies --  1461.4003              1463.3804              1490.8488
 Red. masses --     1.3502                 1.3225                 1.5770
 Frc consts  --     1.6990                 1.6686                 2.0651
 IR Inten    --   118.7745                98.1015                90.6740

                    79                     80                     81
                     A                      A                      A
 Frequencies --  1505.2113              1509.4469              1510.8584
 Red. masses --     1.1411                 1.0592                 1.0840
 Frc consts  --     1.5233                 1.4219                 1.4579
 IR Inten    --    41.7080                 4.6591                 3.3267

                    82                     83                     84
                     A                      A                      A
 Frequencies --  1513.0923              1517.0019              1517.1648
 Red. masses --     1.0879                 1.0932                 1.0929
 Frc consts  --     1.4674                 1.4822                 1.4821
 IR Inten    --    25.1883                 2.2553                 3.1992

                    85                     86                     87
                     A                      A                      A
 Frequencies --  1523.2027              1527.6094              1530.5161
 Red. masses --     1.0887                 1.0708                 1.0624
 Frc consts  --     1.4883                 1.4723                 1.4663
 IR Inten    --    22.0938                15.0190                20.0370

                    88                     89                     90
                     A                      A                      A
 Frequencies --  1535.8074              1564.3664              1615.0437
 Red. masses --     1.1024                 1.3855                 1.1123
 Frc consts  --     1.5320                 1.9978                 1.7093
 IR Inten    --     0.9580                34.0151               123.3025

                    91                     92                     93
                     A                      A                      A
 Frequencies --  1657.0160              1743.9317              1808.5405
 Red. masses --     1.2693                 5.0415                 7.2845
 Frc consts  --     2.0534                 9.0338                14.0381
 IR Inten    --   100.4153               218.9565               295.5437

                    94                     95                     96
                     A                      A                      A
 Frequencies --  3012.9050              3016.3866              3030.9418
 Red. masses --     1.0660                 1.0674                 1.0724
 Frc consts  --     5.7013                 5.7222                 5.8044
 IR Inten    --     8.6114                26.7221                 9.1438

                    97                     98                     99
                     A                      A                      A
 Frequencies --  3035.7867              3042.8377              3045.6389
 Red. masses --     1.0686                 1.0653                 1.0816
 Frc consts  --     5.8024                 5.8116                 5.9114
 IR Inten    --     2.7206                29.4538                17.5751

                   100                    101                    102
                     A                      A                      A
 Frequencies --  3061.7018              3064.2958              3067.5910
 Red. masses --     1.0391                 1.0945                 1.0380
 Frc consts  --     5.7391                 6.0553                 5.7548
 IR Inten    --     7.7383                50.4603                39.0694

                   103                    104                    105
                     A                      A                      A
 Frequencies --  3089.0322              3096.7832              3097.3305
 Red. masses --     1.0934                 1.0963                 1.0923
 Frc consts  --     6.1474                 6.1942                 6.1740
 IR Inten    --     8.0240                21.8681                26.5806

                   106                    107                    108
                     A                      A                      A
 Frequencies --  3098.4957              3099.8923              3106.8786
 Red. masses --     1.0645                 1.1014                 1.0729
 Frc consts  --     6.0216                 6.2356                 6.1020
 IR Inten    --    96.7446                43.0944                78.9024

                   109                    110                    111
                     A                      A                      A
 Frequencies --  3119.3022              3119.6604              3127.0207
 Red. masses --     1.0803                 1.1048                 1.1062
 Frc consts  --     6.1932                 6.3351                 6.3729
 IR Inten    --    78.7771                12.8493                 9.2129

                   112                    113                    114
                     A                      A                      A
 Frequencies --  3160.6830              3187.9200              3211.3806
 Red. masses --     1.1078                 1.0981                 1.0998
 Frc consts  --     6.5201                 6.5749                 6.6827
 IR Inten    --     0.4973                16.1793                 0.3990

                   115                    116                    117
                     A                      A                      A
 Frequencies --  3218.7586              3580.3909              3698.7449
 Red. masses --     1.0791                 1.0466                 1.1058
 Frc consts  --     6.5872                 7.9050                 8.9129
 IR Inten    --   272.0100               119.3254                73.4436

 - Thermochemistry -
 -------------------
 Temperature   298.150 Kelvin.  Pressure   1.00000 Atm.
 Atom     1 has atomic number  6 and mass  12.00000

 Molecular mass:   242.18685 amu.
 Principal axes and moments of inertia in atomic units:
                           1         2         3
     Eigenvalues --  4192.464864984.603427868.77862
           X            0.99967   0.02568  -0.00037
           Y           -0.02568   0.99964   0.00832
           Z            0.00058  -0.00831   0.99997
 This molecule is an asymmetric top.
 Rotational symmetry number  1.
 Warning -- assumption of classical behavior for rotation
           may cause significant error
 Rotational temperatures (Kelvin)      0.02066     0.01738     0.01101
 Rotational constants (GHZ):           0.43047     0.36206     0.22935
 Zero-point vibrational energy     974541.2 (Joules/Mol)
                                  232.92095 (Kcal/Mol)
 Warning -- explicit consideration of  28 degrees of freedom as
           vibrations may cause significant error
 Vibrational temperatures:     34.89    49.89    75.69    91.85   100.41
          (Kelvin)            109.33   152.90   171.32   194.05   214.93
                              251.41   323.89   329.85   339.17   379.95
                              413.74   430.64   490.95   517.39   576.87
                              599.68   625.88   638.12   660.64   707.52
                              730.63   765.74   871.72   908.59   933.35
                              967.72  1055.63  1129.68  1143.94  1157.29
                             1201.90  1229.01  1271.98  1312.43  1335.89
                             1365.54  1382.37  1415.48  1463.26  1503.71
                             1513.11  1532.19  1550.49  1559.84  1567.75
                             1584.50  1597.67  1612.81  1629.29  1687.76
                             1701.29  1707.34  1740.36  1787.69  1826.56
                             1842.03  1856.02  1879.75  1889.84  1898.65
                             1938.18  1951.35  1980.46  1998.45  2003.90
                             2011.35  2021.37  2030.63  2045.15  2100.33
                             2102.63  2105.48  2145.00  2165.66  2171.75
                             2173.79  2177.00  2182.62  2182.86  2191.55
                             2197.89  2202.07  2209.68  2250.77  2323.68
                             2384.07  2509.13  2602.08  4334.89  4339.90
                             4360.84  4367.81  4377.96  4381.99  4405.10
                             4408.83  4413.57  4444.42  4455.57  4456.36
                             4458.04  4460.05  4470.10  4487.97  4488.49
                             4499.08  4547.51  4586.70  4620.45  4631.07
                             5151.38  5321.66

 Zero-point correction=                           0.371183 (Hartree/Particle)
 Thermal correction to Energy=                    0.389885
 Thermal correction to Enthalpy=                  0.390829
 Thermal correction to Gibbs Free Energy=         0.322921
 Sum of electronic and zero-point Energies=           -785.887826
 Sum of electronic and thermal Energies=              -785.869125
 Sum of electronic and thermal Enthalpies=            -785.868181
 Sum of electronic and thermal Free Energies=         -785.936088

                     E (Thermal)             CV                S
                      KCal/Mol        Cal/Mol-Kelvin    Cal/Mol-Kelvin
 Total                  244.656             69.587            142.924
 Electronic               0.000              0.000              0.000
 Translational            0.889              2.981             42.355
 Rotational               0.889              2.981             33.464
 Vibrational            242.879             63.625             67.105
 Vibration     1          0.593              1.985              6.252
 Vibration     2          0.594              1.983              5.542
 Vibration     3          0.596              1.977              4.717
 Vibration     4          0.597              1.972              4.335
 Vibration     5          0.598              1.969              4.159
 Vibration     6          0.599              1.965              3.992
 Vibration     7          0.605              1.944              3.336
 Vibration     8          0.609              1.933              3.115
 Vibration     9          0.613              1.919              2.875
 Vibration    10          0.618              1.903              2.680
 Vibration    11          0.627              1.874              2.384
 Vibration    12          0.650              1.803              1.918
 Vibration    13          0.652              1.796              1.885
 Vibration    14          0.655              1.786              1.835
 Vibration    15          0.671              1.739              1.635
 Vibration    16          0.685              1.697              1.488
 Vibration    17          0.692              1.675              1.421
 Vibration    18          0.721              1.593              1.206
 Vibration    19          0.734              1.555              1.124
 Vibration    20          0.767              1.468              0.959
 Vibration    21          0.780              1.434              0.903
 Vibration    22          0.796              1.394              0.842
 Vibration    23          0.803              1.375              0.816
 Vibration    24          0.817              1.341              0.769
 Vibration    25          0.847              1.268              0.679
 Vibration    26          0.863              1.233              0.639
 Vibration    27          0.887              1.179              0.582
 Vibration    28          0.965              1.019              0.440

 Optimization completed.
    -- Stationary point found.
 Normal termination of Gaussian 09 at Sat Feb 17 01:45:54 2018.
