 Gaussian 09, Revision C.01,
 Gaussian 09:  AM64L-G09RevC.01 23-Sep-2011

 ----------------------------------------------------------------------
 #HF/6-31G* Geom=AllCheck Guess=Read Pop=(MK,ReadRadii) Integral=(Grid=
 UltraFine) iop(6/33=2)
 ----------------------------------------------------------------------

 Structure from the checkpoint file:  frag43-conf1.chk
 -----------------------------
 Optimization for frag43-conf1
 -----------------------------
 Charge =  1 Multiplicity = 1

                         Standard orientation:
 ---------------------------------------------------------------------
 Center     Atomic      Atomic             Coordinates (Angstroms)
 Number     Number       Type             X           Y           Z
 ---------------------------------------------------------------------
      1          6           0        3.571396    0.265103    0.009881
      2          6           0       -0.874698    1.684171   -0.308134
      3          6           0       -1.262100   -3.716988   -0.348531
      4          6           0       -1.935854   -2.619532   -1.183982
      5          6           0       -1.016710   -3.251354    1.093648
      6          6           0       -1.131165   -1.308658   -1.155583
      7          6           0       -0.213205   -1.940220    1.138206
      8          6           0       -0.895967   -0.839433    0.297207
      9          6           0       -2.679556    3.297119   -0.451319
     10          6           0       -2.469707    1.937239    1.600696
     11          6           0        2.346688    1.177273    0.246284
     12          6           0       -0.141800    0.511903    0.401239
     13          7           0        4.776070    0.812688    0.233410
     14          7           0       -1.941943    2.256128    0.275281
     15          7           0        1.179668    0.442199   -0.324523
     16          8           0        3.377691   -0.895997   -0.338318
     17          8           0       -0.436420    2.013538   -1.421866
     18          1           0       -1.878550   -4.622701   -0.350026
     19          1           0       -0.303583   -3.991827   -0.811856
     20          1           0       -2.057828   -2.946889   -2.222310
     21          1           0       -2.946692   -2.429216   -0.796073
     22          1           0       -1.980653   -3.097880    1.599194
     23          1           0       -0.486046   -4.022735    1.662563
     24          1           0       -0.166416   -1.485245   -1.655914
     25          1           0       -1.645334   -0.533064   -1.734955
     26          1           0       -0.099849   -1.601606    2.177237
     27          1           0        0.802246   -2.136043    0.760303
     28          1           0       -1.882637   -0.653976    0.743327
     29          1           0       -3.729581    3.001690   -0.547570
     30          1           0       -2.240188    3.423598   -1.438501
     31          1           0       -2.626698    4.241669    0.100628
     32          1           0       -2.576660    2.862051    2.177243
     33          1           0       -1.811034    1.267585    2.151900
     34          1           0       -3.456500    1.467557    1.516867
     35          1           0        2.434721    2.153013   -0.236878
     36          1           0        2.196569    1.325183    1.319337
     37          1           0        0.076517    0.733044    1.448577
     38          1           0        4.905304    1.782815    0.484839
     39          1           0        5.600477    0.237022    0.111651
     40          1           0        0.935004    0.859253   -1.253497
     41          1           0        1.526736   -0.530474   -0.451468
 ---------------------------------------------------------------------

 SCF Done:  E(RHF) =  -781.296674452     A.U. after   13 cycles

 The electronic state is 1-A.
 Alpha  occ. eigenvalues --  -20.69012 -20.67770 -15.82733 -15.74116 -15.74071
 Alpha  occ. eigenvalues --  -11.52341 -11.50900 -11.46170 -11.45674 -11.39940
 Alpha  occ. eigenvalues --  -11.38266 -11.37444 -11.35059 -11.34774 -11.32750
 Alpha  occ. eigenvalues --  -11.32634 -11.31851  -1.54689  -1.53360  -1.45290
 Alpha  occ. eigenvalues --   -1.38754  -1.36670  -1.25435  -1.18904  -1.13551
 Alpha  occ. eigenvalues --   -1.12167  -1.10399  -1.10024  -1.04979  -0.96430
 Alpha  occ. eigenvalues --   -0.96235  -0.94855  -0.92776  -0.89713  -0.88002
 Alpha  occ. eigenvalues --   -0.87025  -0.83608  -0.82550  -0.81423  -0.79394
 Alpha  occ. eigenvalues --   -0.78680  -0.78578  -0.76140  -0.74571  -0.73024
 Alpha  occ. eigenvalues --   -0.72150  -0.71400  -0.70788  -0.70518  -0.69247
 Alpha  occ. eigenvalues --   -0.68735  -0.68101  -0.67133  -0.65846  -0.64569
 Alpha  occ. eigenvalues --   -0.63600  -0.62937  -0.61038  -0.60022  -0.59019
 Alpha  occ. eigenvalues --   -0.57869  -0.56429  -0.56117  -0.54925  -0.54266
 Alpha  occ. eigenvalues --   -0.51097
 Alpha virt. eigenvalues --    0.02965   0.03560   0.06997   0.07747   0.08781
 Alpha virt. eigenvalues --    0.10469   0.11624   0.12887   0.13340   0.14857
 Alpha virt. eigenvalues --    0.15365   0.16443   0.16884   0.17693   0.17935

 Mulliken atomic charges:
              1
     1  C    0.782049
     2  C    0.840076
     3  C   -0.323237
     4  C   -0.319929
     5  C   -0.318775
     6  C   -0.342074
     7  C   -0.335709
     8  C   -0.207297
     9  C   -0.315483
    10  C   -0.306149
    11  C   -0.249722
    12  C   -0.098384
    13  N   -0.911796
    14  N   -0.666657
    15  N   -0.856218
    16  O   -0.618032
    17  O   -0.674980
    18  H    0.196339
    19  H    0.168773
    20  H    0.197775
    21  H    0.169258
    22  H    0.169538
    23  H    0.196830
    24  H    0.158455
    25  H    0.203206
    26  H    0.174496
    27  H    0.174087
    28  H    0.209324
    29  H    0.199796
    30  H    0.252526
    31  H    0.198027
    32  H    0.216103
    33  H    0.183329
    34  H    0.211966
    35  H    0.268552
    36  H    0.257145
    37  H    0.237653
    38  H    0.421623
    39  H    0.440649
    40  H    0.504686
    41  H    0.512181
 Sum of Mulliken atomic charges =   1.00000

 Dipole moment (field-independent basis, Debye):
    X=              3.1564    Y=              4.9925    Z=              3.8406  Tot=              7.0455
 Quadrupole moment (field-independent basis, Debye-Ang):
   XX=            -53.6171   YY=            -85.1286   ZZ=           -100.6810
   XY=             10.1973   XZ=              0.8497   YZ=              6.9452

 Normal termination of Gaussian 09 at Sat Feb 17 21:06:16 2018.
