 Gaussian 09, Revision C.01,
 Gaussian 09:  AM64L-G09RevC.01 23-Sep-2011

 ----------------------------------------------------------------------
 #HF/6-31G* Geom=AllCheck Guess=Read Pop=(MK,ReadRadii) Integral=(Grid=
 UltraFine) iop(6/33=2)
 ----------------------------------------------------------------------

 Structure from the checkpoint file:  frag6-conf1.chk
 ----------------------------
 Optimization for frag6-conf1
 ----------------------------
 Charge =  1 Multiplicity = 1

                         Standard orientation:
 ---------------------------------------------------------------------
 Center     Atomic      Atomic             Coordinates (Angstroms)
 Number     Number       Type             X           Y           Z
 ---------------------------------------------------------------------
      1          6           0        1.793223    1.376038   -0.042946
      2          6           0        1.145213   -0.962976   -0.213042
      3          6           0        0.473855    1.746133   -0.281764
      4          6           0       -0.168477   -0.581119   -0.443303
      5          6           0        2.141115    0.013678   -0.009372
      6          6           0       -0.521313    0.780116   -0.483270
      7          6           0        3.528707   -0.387370    0.223431
      8          6           0       -3.544104   -0.464247    0.169313
      9          6           0       -4.649714   -0.706445    1.178066
     10          6           0       -1.960956    1.181724   -0.765342
     11          7           0        4.309623    0.336591    1.022819
     12          7           0       -2.904993    0.748109    0.256726
     13          7           0        4.015137   -1.477532   -0.365070
     14          8           0       -3.236037   -1.287464   -0.686507
     15          1           0        2.553909    2.144846    0.061408
     16          1           0        1.388089   -2.020170   -0.148184
     17          1           0        0.219604    2.801412   -0.328664
     18          1           0       -0.943883   -1.326023   -0.594844
     19          1           0       -5.612709   -0.678773    0.656801
     20          1           0       -4.534242   -1.709451    1.596385
     21          1           0       -4.671117    0.025345    1.991076
     22          1           0       -2.032588    2.268360   -0.866984
     23          1           0       -2.274418    0.729097   -1.712263
     24          1           0        3.905757    1.063988    1.597236
     25          1           0        5.299173    0.152781    1.136931
     26          1           0       -3.190896    1.411289    0.962664
     27          1           0        3.482560   -1.938276   -1.090924
     28          1           0        4.935398   -1.848086   -0.160521
 ---------------------------------------------------------------------

 SCF Done:  E(RHF) =  -624.884001231     A.U. after   14 cycles

 The electronic state is 1-A.
 Alpha  occ. eigenvalues --  -20.61599 -15.79235 -15.79183 -15.68949 -11.56067
 Alpha  occ. eigenvalues --  -11.44790 -11.40692 -11.39914 -11.39426 -11.38719
 Alpha  occ. eigenvalues --  -11.38301 -11.37410 -11.36387 -11.31995  -1.49668
 Alpha  occ. eigenvalues --   -1.46863  -1.37977  -1.32913  -1.29814  -1.19693
 Alpha  occ. eigenvalues --   -1.15970  -1.11062  -1.07251  -1.02510  -0.97988
 Alpha  occ. eigenvalues --   -0.96588  -0.92437  -0.91817  -0.88370  -0.85140
 Alpha  occ. eigenvalues --   -0.82821  -0.79961  -0.78649  -0.76585  -0.75034
 Alpha  occ. eigenvalues --   -0.74302  -0.73391  -0.72653  -0.69011  -0.67077
 Alpha  occ. eigenvalues --   -0.66552  -0.65254  -0.64127  -0.63269  -0.62094
 Alpha  occ. eigenvalues --   -0.60477  -0.59200  -0.51293  -0.49166  -0.47864
 Alpha  occ. eigenvalues --   -0.47214
 Alpha virt. eigenvalues --   -0.06951  -0.00461   0.04419   0.04768   0.08971
 Alpha virt. eigenvalues --    0.09599   0.09997   0.11954   0.13060   0.13298
 Alpha virt. eigenvalues --    0.16424   0.18292   0.19271   0.21056   0.22355

 Mulliken atomic charges:
              1
     1  C   -0.186829
     2  C   -0.192553
     3  C   -0.231972
     4  C   -0.225445
     5  C   -0.088513
     6  C    0.059475
     7  C    0.749438
     8  C    0.760502
     9  C   -0.579334
    10  C   -0.168732
    11  N   -0.893718
    12  N   -0.797587
    13  N   -0.892318
    14  O   -0.629237
    15  H    0.244035
    16  H    0.246062
    17  H    0.243454
    18  H    0.313833
    19  H    0.227276
    20  H    0.222303
    21  H    0.178938
    22  H    0.208084
    23  H    0.250136
    24  H    0.450918
    25  H    0.438984
    26  H    0.399938
    27  H    0.453770
    28  H    0.439092
 Sum of Mulliken atomic charges =   1.00000

 Dipole moment (field-independent basis, Debye):
    X=             12.4567    Y=              1.5544    Z=              3.0710  Tot=             12.9235
 Quadrupole moment (field-independent basis, Debye-Ang):
   XX=              4.3881   YY=            -66.5516   ZZ=            -77.9368
   XY=            -17.7930   XZ=             -1.4067   YZ=              2.5173

 Normal termination of Gaussian 09 at Sat Feb 17 20:56:55 2018.
