 Gaussian 09, Revision C.01,
 Gaussian 09:  AM64L-G09RevC.01 23-Sep-2011

 ---------------------------------------------------------
 #B3LYP/6-31G* Integral=(Grid=UltraFine) freq Opt pop=none
 ---------------------------------------------------------

 99/9=1/99;
 ----------------------------
 Optimization for frag6-conf1
 ----------------------------
 Charge =  1 Multiplicity = 1

 SCF Done:  E(RB3LYP) =  -628.781349719     A.U. after   16 cycles
 SCF Done:  E(RB3LYP) =  -628.786950213     A.U. after   15 cycles
 SCF Done:  E(RB3LYP) =  -628.788393888     A.U. after   12 cycles
 SCF Done:  E(RB3LYP) =  -628.789054108     A.U. after   12 cycles
 SCF Done:  E(RB3LYP) =  -628.789272317     A.U. after   11 cycles
 SCF Done:  E(RB3LYP) =  -628.789336637     A.U. after   11 cycles
 SCF Done:  E(RB3LYP) =  -628.789384302     A.U. after   11 cycles
 SCF Done:  E(RB3LYP) =  -628.789425767     A.U. after   11 cycles
 SCF Done:  E(RB3LYP) =  -628.789465452     A.U. after   11 cycles
 SCF Done:  E(RB3LYP) =  -628.789480314     A.U. after   10 cycles
 SCF Done:  E(RB3LYP) =  -628.789487434     A.U. after    9 cycles
 SCF Done:  E(RB3LYP) =  -628.789497062     A.U. after   10 cycles
 SCF Done:  E(RB3LYP) =  -628.789513660     A.U. after   10 cycles
 SCF Done:  E(RB3LYP) =  -628.789523038     A.U. after   10 cycles
 SCF Done:  E(RB3LYP) =  -628.789527307     A.U. after   10 cycles
 SCF Done:  E(RB3LYP) =  -628.789528779     A.U. after    9 cycles
 SCF Done:  E(RB3LYP) =  -628.789529525     A.U. after    9 cycles
 SCF Done:  E(RB3LYP) =  -628.789529743     A.U. after    8 cycles
 SCF Done:  E(RB3LYP) =  -628.789529796     A.U. after    7 cycles
 Optimization completed.
    -- Stationary point found.
 Normal termination of Gaussian 09 at Fri Feb 16 17:54:57 2018.

 --------------------------------------------------------------------
 #N Geom=AllCheck Guess=TCheck SCRF=Check GenChk RB3LYP/6-31G(d) Freq
 --------------------------------------------------------------------

 Structure from the checkpoint file:  frag6-conf1.chk
 ----------------------------
 Optimization for frag6-conf1
 ----------------------------
 Charge =  1 Multiplicity = 1

                         Standard orientation:
 ---------------------------------------------------------------------
 Center     Atomic      Atomic             Coordinates (Angstroms)
 Number     Number       Type             X           Y           Z
 ---------------------------------------------------------------------
      1          6           0        1.793223    1.376038   -0.042946
      2          6           0        1.145213   -0.962976   -0.213042
      3          6           0        0.473855    1.746133   -0.281764
      4          6           0       -0.168477   -0.581119   -0.443303
      5          6           0        2.141115    0.013678   -0.009372
      6          6           0       -0.521313    0.780116   -0.483270
      7          6           0        3.528707   -0.387370    0.223431
      8          6           0       -3.544104   -0.464247    0.169313
      9          6           0       -4.649714   -0.706445    1.178066
     10          6           0       -1.960956    1.181724   -0.765342
     11          7           0        4.309623    0.336591    1.022819
     12          7           0       -2.904993    0.748109    0.256726
     13          7           0        4.015137   -1.477532   -0.365070
     14          8           0       -3.236037   -1.287464   -0.686507
     15          1           0        2.553909    2.144846    0.061408
     16          1           0        1.388089   -2.020170   -0.148184
     17          1           0        0.219604    2.801412   -0.328664
     18          1           0       -0.943883   -1.326023   -0.594844
     19          1           0       -5.612709   -0.678773    0.656801
     20          1           0       -4.534242   -1.709451    1.596385
     21          1           0       -4.671117    0.025345    1.991076
     22          1           0       -2.032588    2.268360   -0.866984
     23          1           0       -2.274418    0.729097   -1.712263
     24          1           0        3.905757    1.063988    1.597236
     25          1           0        5.299173    0.152781    1.136931
     26          1           0       -3.190896    1.411289    0.962664
     27          1           0        3.482560   -1.938276   -1.090924
     28          1           0        4.935398   -1.848086   -0.160521
 ---------------------------------------------------------------------

 SCF Done:  E(RB3LYP) =  -628.789529796     A.U. after    1 cycles

 Isotropic polarizability for W=    0.000000      128.17 Bohr**3.
 End of Minotr Frequency-dependent properties file   721 does not exist.

                     1                      2                      3
                     A                      A                      A
 Frequencies --    25.2977                53.0765                58.3263
 Red. masses --     3.9541                 2.0487                 1.4418
 Frc consts  --     0.0015                 0.0034                 0.0029
 IR Inten    --     0.1452                 6.9139                 3.3289

                     4                      5                      6
                     A                      A                      A
 Frequencies --    83.8036                97.0447               102.3974
 Red. masses --     5.7790                 3.9355                 3.7404
 Frc consts  --     0.0239                 0.0218                 0.0231
 IR Inten    --    16.8450                 0.1213                 3.8294

                     7                      8                      9
                     A                      A                      A
 Frequencies --   166.4714               206.8482               248.9446
 Red. masses --     4.9964                 5.8193                 4.0894
 Frc consts  --     0.0816                 0.1467                 0.1493
 IR Inten    --     0.4450                10.8237                 2.9659

                    10                     11                     12
                     A                      A                      A
 Frequencies --   281.5822               332.2922               378.6858
 Red. masses --     4.1434                 2.3436                 3.7476
 Frc consts  --     0.1936                 0.1525                 0.3166
 IR Inten    --     8.2508                 7.4658                 2.7041

                    13                     14                     15
                     A                      A                      A
 Frequencies --   408.2082               415.2096               440.3843
 Red. masses --     1.1967                 2.9020                 2.6658
 Frc consts  --     0.1175                 0.2948                 0.3046
 IR Inten    --    76.1958                 7.1210                 0.2274

                    16                     17                     18
                     A                      A                      A
 Frequencies --   453.8293               482.5648               494.0729
 Red. masses --     1.2293                 1.8281                 1.6204
 Frc consts  --     0.1492                 0.2508                 0.2330
 IR Inten    --    20.2759                 0.9649                 2.0605

                    19                     20                     21
                     A                      A                      A
 Frequencies --   509.0080               538.4670               579.4090
 Red. masses --     1.2557                 2.5710                 2.9733
 Frc consts  --     0.1917                 0.4392                 0.5881
 IR Inten    --   463.0997                13.6893                 4.0933

                    22                     23                     24
                     A                      A                      A
 Frequencies --   631.5788               632.2357               649.4305
 Red. masses --     2.8862                 2.4587                 3.3848
 Frc consts  --     0.6783                 0.5790                 0.8411
 IR Inten    --     6.7156                 1.5598                 1.6239

                    25                     26                     27
                     A                      A                      A
 Frequencies --   655.4135               704.2710               723.4584
 Red. masses --     1.5998                 3.3146                 3.5039
 Frc consts  --     0.4049                 0.9686                 1.0805
 IR Inten    --     7.2775                 4.8470                21.1722

                    28                     29                     30
                     A                      A                      A
 Frequencies --   772.3427               830.6489               849.1422
 Red. masses --     4.5994                 3.3902                 2.3085
 Frc consts  --     1.6165                 1.3782                 0.9807
 IR Inten    --     1.8804                16.1901                 1.9365

                    31                     32                     33
                     A                      A                      A
 Frequencies --   863.4789               885.4508               980.5084
 Red. masses --     1.4412                 1.7767                 1.3299
 Frc consts  --     0.6331                 0.8207                 0.7533
 IR Inten    --     0.7711                32.4807                 0.8507

                    34                     35                     36
                     A                      A                      A
 Frequencies --  1002.1233              1025.5677              1034.2431
 Red. masses --     1.6077                 1.4401                 2.8539
 Frc consts  --     0.9512                 0.8924                 1.7986
 IR Inten    --     4.9931                 3.6956                 2.5468

                    37                     38                     39
                     A                      A                      A
 Frequencies --  1043.4620              1069.7147              1071.1925
 Red. masses --     2.3567                 1.6875                 1.3267
 Frc consts  --     1.5118                 1.1377                 0.8969
 IR Inten    --     9.2095                 8.7262                 2.0127

                    40                     41                     42
                     A                      A                      A
 Frequencies --  1106.5004              1109.2533              1165.3377
 Red. masses --     2.2083                 2.9322                 1.3694
 Frc consts  --     1.5930                 2.1258                 1.0957
 IR Inten    --     0.8760                 8.7394                 9.1707

                    43                     44                     45
                     A                      A                      A
 Frequencies --  1179.7556              1224.7545              1234.9265
 Red. masses --     2.9026                 1.7933                 1.5656
 Frc consts  --     2.3803                 1.5849                 1.4067
 IR Inten    --    23.2020                 1.9285                 2.2016

                    46                     47                     48
                     A                      A                      A
 Frequencies --  1272.3540              1302.2813              1353.9698
 Red. masses --     1.6877                 1.6628                 1.7439
 Frc consts  --     1.6098                 1.6615                 1.8837
 IR Inten    --    80.1736               105.7956                 2.9518

                    49                     50                     51
                     A                      A                      A
 Frequencies --  1378.6244              1409.1896              1429.2275
 Red. masses --     2.0755                 1.3789                 1.2457
 Frc consts  --     2.3242                 1.6133                 1.4993
 IR Inten    --     4.7382                25.3724                20.4308

                    52                     53                     54
                     A                      A                      A
 Frequencies --  1462.2720              1490.1701              1496.6616
 Red. masses --     2.5971                 1.1051                 1.0513
 Frc consts  --     3.2718                 1.4458                 1.3875
 IR Inten    --    17.3077                10.6208                16.1565

                    55                     56                     57
                     A                      A                      A
 Frequencies --  1513.7922              1514.9858              1545.4002
 Red. masses --     1.4968                 1.5244                 1.9012
 Frc consts  --     2.0209                 2.0614                 2.6753
 IR Inten    --   126.0410               182.9197               220.6026

                    58                     59                     60
                     A                      A                      A
 Frequencies --  1563.7695              1575.0091              1615.9593
 Red. masses --     2.6972                 2.0338                 3.4266
 Frc consts  --     3.8861                 2.9725                 5.2720
 IR Inten    --    69.4262                 8.4755                 3.1217

                    61                     62                     63
                     A                      A                      A
 Frequencies --  1657.0349              1704.4644              1720.9435
 Red. masses --     5.2002                 1.2477                 2.3271
 Frc consts  --     8.4127                 2.1356                 4.0608
 IR Inten    --   136.0884               188.3036               388.2737

                    64                     65                     66
                     A                      A                      A
 Frequencies --  1772.0010              3069.0332              3075.2968
 Red. masses --     8.8578                 1.0364                 1.0593
 Frc consts  --    16.3872                 5.7513                 5.9024
 IR Inten    --   168.8230                 3.9463                14.6372

                    67                     68                     69
                     A                      A                      A
 Frequencies --  3127.4575              3138.6262              3157.9476
 Red. masses --     1.1062                 1.1021                 1.1027
 Frc consts  --     6.3749                 6.3969                 6.4791
 IR Inten    --     9.0491                 8.3452                 6.3544

                    70                     71                     72
                     A                      A                      A
 Frequencies --  3195.0483              3198.4366              3209.9741
 Red. masses --     1.0882                 1.0899                 1.0948
 Frc consts  --     6.5452                 6.5691                 6.6462
 IR Inten    --     2.2845                 3.3771                 3.3273

                    73                     74                     75
                     A                      A                      A
 Frequencies --  3221.4920              3572.8576              3583.4407
 Red. masses --     1.0951                 1.0469                 1.0494
 Frc consts  --     6.6958                 7.8738                 7.9395
 IR Inten    --    21.2824               165.9369               153.3202

                    76                     77                     78
                     A                      A                      A
 Frequencies --  3631.8855              3688.9000              3691.2633
 Red. masses --     1.0786                 1.1049                 1.1050
 Frc consts  --     8.3824                 8.8583                 8.8710
 IR Inten    --    28.3411                79.8450                83.1473

 - Thermochemistry -
 -------------------
 Temperature   298.150 Kelvin.  Pressure   1.00000 Atm.
 Atom     1 has atomic number  6 and mass  12.00000

 Molecular mass:   192.11369 amu.
 Principal axes and moments of inertia in atomic units:
                           1         2         3
     Eigenvalues --  1024.126536250.605296750.39956
           X            0.99998  -0.00385  -0.00590
           Y            0.00384   0.99999  -0.00245
           Z            0.00591   0.00243   0.99998
 This molecule is an asymmetric top.
 Rotational symmetry number  1.
 Warning -- assumption of classical behavior for rotation
           may cause significant error
 Rotational temperatures (Kelvin)      0.08457     0.01386     0.01283
 Rotational constants (GHZ):           1.76222     0.28873     0.26735
 Zero-point vibrational energy     622898.4 (Joules/Mol)
                                  148.87630 (Kcal/Mol)
 Warning -- explicit consideration of  21 degrees of freedom as
           vibrations may cause significant error
 Vibrational temperatures:     36.40    76.37    83.92   120.57   139.63
          (Kelvin)            147.33   239.51   297.61   358.18   405.13
                              478.09   544.84   587.32   597.39   633.61
                              652.96   694.30   710.86   732.35   774.73
                              833.64   908.70   909.64   934.38   942.99
                             1013.29  1040.89  1111.23  1195.12  1221.72
                             1242.35  1273.96  1410.73  1441.83  1475.56
                             1488.04  1501.31  1539.08  1541.21  1592.01
                             1595.97  1676.66  1697.40  1762.15  1776.78
                             1830.63  1873.69  1948.06  1983.53  2027.51
                             2056.34  2103.88  2144.02  2153.36  2178.01
                             2179.72  2223.48  2249.91  2266.08  2325.00
                             2384.10  2452.34  2476.05  2549.51  4415.65
                             4424.66  4499.71  4515.78  4543.58  4596.96
                             4601.83  4618.43  4635.00  5140.54  5155.77
                             5225.47  5307.50  5310.90

 Zero-point correction=                           0.237249 (Hartree/Particle)
 Thermal correction to Energy=                    0.251398
 Thermal correction to Enthalpy=                  0.252342
 Thermal correction to Gibbs Free Energy=         0.195022
 Sum of electronic and zero-point Energies=           -628.552280
 Sum of electronic and thermal Energies=              -628.538132
 Sum of electronic and thermal Enthalpies=            -628.537188
 Sum of electronic and thermal Free Energies=         -628.594508

                     E (Thermal)             CV                S
                      KCal/Mol        Cal/Mol-Kelvin    Cal/Mol-Kelvin
 Total                  157.754             53.316            120.639
 Electronic               0.000              0.000              0.000
 Translational            0.889              2.981             41.664
 Rotational               0.889              2.981             32.136
 Vibrational            155.977             47.354             46.839
 Vibration     1          0.593              1.985              6.168
 Vibration     2          0.596              1.976              4.699
 Vibration     3          0.596              1.974              4.513
 Vibration     4          0.601              1.960              3.800
 Vibration     5          0.603              1.951              3.513
 Vibration     6          0.604              1.947              3.408
 Vibration     7          0.624              1.884              2.475
 Vibration     8          0.641              1.830              2.071
 Vibration     9          0.662              1.765              1.738
 Vibration    10          0.681              1.708              1.524
 Vibration    11          0.714              1.611              1.249
 Vibration    12          0.749              1.516              1.044
 Vibration    13          0.773              1.452              0.933
 Vibration    14          0.779              1.437              0.908
 Vibration    15          0.800              1.382              0.825
 Vibration    16          0.812              1.352              0.784
 Vibration    17          0.839              1.289              0.703
 Vibration    18          0.850              1.263              0.673
 Vibration    19          0.864              1.230              0.636
 Vibration    20          0.894              1.165              0.569
 Vibration    21          0.936              1.076              0.486

 Normal termination of Gaussian 09 at Fri Feb 16 18:18:25 2018.
