 Gaussian 09, Revision C.01,
 Gaussian 09:  AM64L-G09RevC.01 23-Sep-2011

 ----------------------------------------------------------------------
 #HF/6-31G* Geom=AllCheck Guess=Read Pop=(MK,ReadRadii) Integral=(Grid=
 UltraFine) iop(6/33=2)
 ----------------------------------------------------------------------

 Structure from the checkpoint file:  frag13-conf2.chk
 -----------------------------
 Optimization for frag13-conf2
 -----------------------------
 Charge =  1 Multiplicity = 1

                         Standard orientation:
 ---------------------------------------------------------------------
 Center     Atomic      Atomic             Coordinates (Angstroms)
 Number     Number       Type             X           Y           Z
 ---------------------------------------------------------------------
      1          6           0       -1.776504   -0.103615   -0.345310
      2          6           0        3.292574   -1.291522    0.186323
      3          6           0        1.970700   -1.302040    0.969525
      4          6           0        3.247622   -0.293936   -0.980904
      5          6           0        1.583421    0.108441    1.450898
      6          6           0        2.882779    1.119537   -0.493783
      7          6           0        1.587378    1.158201    0.330337
      8          6           0       -3.839451   -1.373565   -0.240819
      9          6           0       -3.810419    0.950745    0.619577
     10          6           0       -0.975708    1.201062   -0.086843
     11          7           0       -3.068816   -0.147859    0.002720
     12          7           0        0.401702    0.937654   -0.619912
     13          8           0       -1.150399   -1.037961   -0.866590
     14          1           0        4.115222   -1.019439    0.862085
     15          1           0        3.514871   -2.296611   -0.187105
     16          1           0        1.168606   -1.723902    0.347999
     17          1           0        2.048956   -1.959335    1.842059
     18          1           0        4.214956   -0.254015   -1.492376
     19          1           0        2.525329   -0.639623   -1.736369
     20          1           0        0.619056    0.093287    1.974573
     21          1           0        2.315425    0.457894    2.189823
     22          1           0        3.677823    1.495372    0.161945
     23          1           0        2.824325    1.830363   -1.330386
     24          1           0        1.427739    2.161879    0.737915
     25          1           0       -4.218969   -1.763839    0.709169
     26          1           0       -3.194742   -2.113204   -0.711244
     27          1           0       -4.686332   -1.149337   -0.897505
     28          1           0       -4.638197    1.254257   -0.030608
     29          1           0       -3.175858    1.818705    0.798861
     30          1           0       -4.224601    0.623818    1.579345
     31          1           0       -1.401689    2.062770   -0.604178
     32          1           0       -0.904633    1.432322    0.977424
     33          1           0        0.560433    1.491232   -1.466552
     34          1           0        0.330920   -0.067317   -0.925812
 ---------------------------------------------------------------------

 SCF Done:  E(RHF) =  -574.482893344     A.U. after   13 cycles

 The electronic state is 1-A.
 Alpha  occ. eigenvalues --  -20.68763 -15.83792 -15.74782 -11.52063 -11.46712
 Alpha  occ. eigenvalues --  -11.44474 -11.40468 -11.37928 -11.37271 -11.37219
 Alpha  occ. eigenvalues --  -11.35033 -11.34585 -11.33748  -1.54468  -1.46057
 Alpha  occ. eigenvalues --   -1.39649  -1.25625  -1.17387  -1.14744  -1.13393
 Alpha  occ. eigenvalues --   -1.10710  -1.06607  -0.98955  -0.97963  -0.93416
 Alpha  occ. eigenvalues --   -0.90258  -0.88735  -0.84429  -0.83305  -0.81081
 Alpha  occ. eigenvalues --   -0.79482  -0.78613  -0.76562  -0.74602  -0.73667
 Alpha  occ. eigenvalues --   -0.73024  -0.71372  -0.69046  -0.68920  -0.67397
 Alpha  occ. eigenvalues --   -0.67080  -0.66718  -0.66393  -0.66145  -0.65682
 Alpha  occ. eigenvalues --   -0.62080  -0.59075  -0.58374  -0.57109  -0.57004
 Alpha  occ. eigenvalues --   -0.51794
 Alpha virt. eigenvalues --    0.02360   0.03644   0.07832   0.09069   0.11165
 Alpha virt. eigenvalues --    0.12029   0.12677   0.14282   0.14344   0.15541
 Alpha virt. eigenvalues --    0.16541   0.17399   0.18213   0.18744   0.19038

 Mulliken atomic charges:
              1
     1  C    0.808315
     2  C   -0.321027
     3  C   -0.356857
     4  C   -0.340125
     5  C   -0.345074
     6  C   -0.354328
     7  C   -0.027744
     8  C   -0.315107
     9  C   -0.308383
    10  C   -0.257152
    11  N   -0.656739
    12  N   -0.828046
    13  O   -0.660691
    14  H    0.178920
    15  H    0.205385
    16  H    0.189902
    17  H    0.210180
    18  H    0.214815
    19  H    0.159007
    20  H    0.185027
    21  H    0.215790
    22  H    0.218991
    23  H    0.187602
    24  H    0.230209
    25  H    0.202153
    26  H    0.252255
    27  H    0.202912
    28  H    0.218129
    29  H    0.184557
    30  H    0.218239
    31  H    0.262756
    32  H    0.263025
    33  H    0.445660
    34  H    0.517444
 Sum of Mulliken atomic charges =   1.00000

 Dipole moment (field-independent basis, Debye):
    X=             -1.7681    Y=              5.1615    Z=              0.3222  Tot=              5.4654
 Quadrupole moment (field-independent basis, Debye-Ang):
   XX=            -41.6777   YY=            -70.9017   ZZ=            -74.9985
   XY=             -0.9237   XZ=             -2.6109   YZ=             -3.3132

 Normal termination of Gaussian 09 at Sat Feb 17 20:57:50 2018.
