 Gaussian 09, Revision C.01,
 Gaussian 09:  AM64L-G09RevC.01 23-Sep-2011

 ---------------------------------------------------------
 #B3LYP/6-31G* Integral=(Grid=UltraFine) freq Opt pop=none
 ---------------------------------------------------------

 99/9=1/99;
 -----------------------------
 Optimization for frag13-conf2
 -----------------------------
 Charge =  1 Multiplicity = 1

 SCF Done:  E(RB3LYP) =  -578.218571726     A.U. after   15 cycles
 SCF Done:  E(RB3LYP) =  -578.225690923     A.U. after   13 cycles
 SCF Done:  E(RB3LYP) =  -578.229870431     A.U. after   15 cycles
 SCF Done:  E(RB3LYP) =  -578.232991501     A.U. after   15 cycles
 SCF Done:  E(RB3LYP) =  -578.236743871     A.U. after   12 cycles
 SCF Done:  E(RB3LYP) =  -578.240232501     A.U. after   13 cycles
 SCF Done:  E(RB3LYP) =  -578.242756029     A.U. after   14 cycles
 SCF Done:  E(RB3LYP) =  -578.243444366     A.U. after   14 cycles
 SCF Done:  E(RB3LYP) =  -578.243995947     A.U. after   12 cycles
 SCF Done:  E(RB3LYP) =  -578.244335077     A.U. after   12 cycles
 SCF Done:  E(RB3LYP) =  -578.244531774     A.U. after    9 cycles
 SCF Done:  E(RB3LYP) =  -578.244548515     A.U. after    9 cycles
 SCF Done:  E(RB3LYP) =  -578.244551680     A.U. after    9 cycles
 SCF Done:  E(RB3LYP) =  -578.244551854     A.U. after    7 cycles
 SCF Done:  E(RB3LYP) =  -578.244551904     A.U. after    7 cycles
 SCF Done:  E(RB3LYP) =  -578.244551949     A.U. after    6 cycles
 SCF Done:  E(RB3LYP) =  -578.244552001     A.U. after    6 cycles
 SCF Done:  E(RB3LYP) =  -578.244552054     A.U. after    7 cycles
 SCF Done:  E(RB3LYP) =  -578.244552066     A.U. after    6 cycles
 Optimization completed.
    -- Stationary point found.
 Normal termination of Gaussian 09 at Fri Feb 16 19:14:57 2018.

 --------------------------------------------------------------------
 #N Geom=AllCheck Guess=TCheck SCRF=Check GenChk RB3LYP/6-31G(d) Freq
 --------------------------------------------------------------------

 Structure from the checkpoint file:  frag13-conf2.chk
 -----------------------------
 Optimization for frag13-conf2
 -----------------------------
 Charge =  1 Multiplicity = 1

                         Standard orientation:
 ---------------------------------------------------------------------
 Center     Atomic      Atomic             Coordinates (Angstroms)
 Number     Number       Type             X           Y           Z
 ---------------------------------------------------------------------
      1          6           0       -1.776504   -0.103615   -0.345310
      2          6           0        3.292574   -1.291522    0.186323
      3          6           0        1.970700   -1.302040    0.969525
      4          6           0        3.247622   -0.293936   -0.980904
      5          6           0        1.583421    0.108441    1.450898
      6          6           0        2.882779    1.119537   -0.493783
      7          6           0        1.587378    1.158201    0.330337
      8          6           0       -3.839451   -1.373565   -0.240819
      9          6           0       -3.810419    0.950745    0.619577
     10          6           0       -0.975708    1.201062   -0.086843
     11          7           0       -3.068816   -0.147859    0.002720
     12          7           0        0.401702    0.937654   -0.619912
     13          8           0       -1.150399   -1.037961   -0.866590
     14          1           0        4.115222   -1.019439    0.862085
     15          1           0        3.514871   -2.296611   -0.187105
     16          1           0        1.168606   -1.723902    0.347999
     17          1           0        2.048956   -1.959335    1.842059
     18          1           0        4.214956   -0.254015   -1.492376
     19          1           0        2.525329   -0.639623   -1.736369
     20          1           0        0.619056    0.093287    1.974573
     21          1           0        2.315425    0.457894    2.189823
     22          1           0        3.677823    1.495372    0.161945
     23          1           0        2.824325    1.830363   -1.330386
     24          1           0        1.427739    2.161879    0.737915
     25          1           0       -4.218969   -1.763839    0.709169
     26          1           0       -3.194742   -2.113204   -0.711244
     27          1           0       -4.686332   -1.149337   -0.897505
     28          1           0       -4.638197    1.254257   -0.030608
     29          1           0       -3.175858    1.818705    0.798861
     30          1           0       -4.224601    0.623818    1.579345
     31          1           0       -1.401689    2.062770   -0.604178
     32          1           0       -0.904633    1.432322    0.977424
     33          1           0        0.560433    1.491232   -1.466552
     34          1           0        0.330920   -0.067317   -0.925812
 ---------------------------------------------------------------------

 SCF Done:  E(RB3LYP) =  -578.244552066     A.U. after    1 cycles

 Isotropic polarizability for W=    0.000000      118.63 Bohr**3.
 End of Minotr Frequency-dependent properties file   721 does not exist.

                     1                      2                      3
                     A                      A                      A
 Frequencies --    32.3865                42.7313                67.7386
 Red. masses --     3.4394                 2.9845                 2.5386
 Frc consts  --     0.0021                 0.0032                 0.0069
 IR Inten    --     0.0832                 1.0047                 2.0798

                     4                      5                      6
                     A                      A                      A
 Frequencies --    89.7137               105.0726               134.7894
 Red. masses --     1.2702                 1.2573                 2.9678
 Frc consts  --     0.0060                 0.0082                 0.0318
 IR Inten    --     0.1953                 0.9913                 4.6812

                     7                      8                      9
                     A                      A                      A
 Frequencies --   139.1183               183.3726               226.2417
 Red. masses --     3.2626                 2.3969                 2.6294
 Frc consts  --     0.0372                 0.0475                 0.0793
 IR Inten    --     4.8483                 0.4804                 1.4017

                    10                     11                     12
                     A                      A                      A
 Frequencies --   266.5839               291.4302               306.2697
 Red. masses --     2.4693                 2.2933                 2.3399
 Frc consts  --     0.1034                 0.1148                 0.1293
 IR Inten    --     4.6234                 4.0979                 1.0754

                    13                     14                     15
                     A                      A                      A
 Frequencies --   330.0834               397.9046               406.4307
 Red. masses --     2.1118                 2.1351                 2.5225
 Frc consts  --     0.1356                 0.1992                 0.2455
 IR Inten    --     9.8930                 7.2607                 2.7288

                    16                     17                     18
                     A                      A                      A
 Frequencies --   426.8634               463.0912               477.6659
 Red. masses --     2.8761                 3.2783                 2.0557
 Frc consts  --     0.3088                 0.4142                 0.2764
 IR Inten    --    71.8879                 3.3360                 0.4513

                    19                     20                     21
                     A                      A                      A
 Frequencies --   534.5357               563.4122               618.4864
 Red. masses --     2.4117                 2.9549                 4.7860
 Frc consts  --     0.4060                 0.5526                 1.0787
 IR Inten    --     9.0440                 1.3841                21.8520

                    22                     23                     24
                     A                      A                      A
 Frequencies --   640.1838               767.6086               783.2476
 Red. masses --     2.3832                 2.9943                 3.4318
 Frc consts  --     0.5755                 1.0395                 1.2404
 IR Inten    --     7.6981                 9.9544                21.3293

                    25                     26                     27
                     A                      A                      A
 Frequencies --   791.0950               824.1152               860.9231
 Red. masses --     1.5162                 2.4959                 1.7188
 Frc consts  --     0.5590                 0.9987                 0.7506
 IR Inten    --     0.5370                 3.5047                13.3574

                    28                     29                     30
                     A                      A                      A
 Frequencies --   874.6312               897.7416               941.5156
 Red. masses --     2.2195                 2.3756                 1.4587
 Frc consts  --     1.0003                 1.1280                 0.7619
 IR Inten    --     4.1537                 7.7643                 2.5915

                    31                     32                     33
                     A                      A                      A
 Frequencies --   955.3935               972.8288              1010.6536
 Red. masses --     2.2979                 2.1652                 2.0059
 Frc consts  --     1.2358                 1.2073                 1.2072
 IR Inten    --     1.5860                 3.2865                 1.2610

                    34                     35                     36
                     A                      A                      A
 Frequencies --  1032.4702              1042.1270              1053.0992
 Red. masses --     3.6477                 2.0928                 2.4466
 Frc consts  --     2.2910                 1.3391                 1.5986
 IR Inten    --    10.5096                 0.8782                14.7218

                    37                     38                     39
                     A                      A                      A
 Frequencies --  1064.6271              1085.5106              1101.6226
 Red. masses --     1.6069                 1.4368                 1.7235
 Frc consts  --     1.0731                 0.9975                 1.2324
 IR Inten    --     1.0605                 9.0901                 0.3712

                    40                     41                     42
                     A                      A                      A
 Frequencies --  1131.1668              1153.6973              1163.7811
 Red. masses --     1.2220                 1.0602                 2.2117
 Frc consts  --     0.9212                 0.8314                 1.7649
 IR Inten    --     0.0630                 0.1797                11.5489

                    43                     44                     45
                     A                      A                      A
 Frequencies --  1176.8899              1184.2279              1186.0817
 Red. masses --     1.3872                 1.7317                 1.4834
 Frc consts  --     1.1320                 1.4309                 1.2295
 IR Inten    --     4.6244                68.3771                21.4621

                    46                     47                     48
                     A                      A                      A
 Frequencies --  1261.3367              1273.4601              1278.8828
 Red. masses --     1.1455                 4.1843                 1.2171
 Frc consts  --     1.0737                 3.9980                 1.1728
 IR Inten    --    10.5382                48.2071                29.2174

                    49                     50                     51
                     A                      A                      A
 Frequencies --  1303.2673              1307.8948              1314.3546
 Red. masses --     1.2330                 1.2227                 1.2252
 Frc consts  --     1.2339                 1.2323                 1.2470
 IR Inten    --    80.1576                10.6348                 4.4195

                    52                     53                     54
                     A                      A                      A
 Frequencies --  1354.2151              1372.9049              1388.2843
 Red. masses --     1.4334                 1.3242                 1.3716
 Frc consts  --     1.5488                 1.4705                 1.5575
 IR Inten    --     1.9366                 0.3553                15.5798

                    55                     56                     57
                     A                      A                      A
 Frequencies --  1398.2051              1403.7301              1408.4529
 Red. masses --     1.2914                 1.4483                 1.4141
 Frc consts  --     1.4874                 1.6815                 1.6528
 IR Inten    --   102.8966                17.9138                41.0314

                    58                     59                     60
                     A                      A                      A
 Frequencies --  1415.1074              1419.8631              1444.0678
 Red. masses --     1.4223                 1.3706                 1.3495
 Frc consts  --     1.6781                 1.6279                 1.6581
 IR Inten    --   132.5477                37.2189                79.6104

                    61                     62                     63
                     A                      A                      A
 Frequencies --  1463.9800              1474.6302              1501.7147
 Red. masses --     1.1562                 1.9484                 1.1593
 Frc consts  --     1.4600                 2.4962                 1.5404
 IR Inten    --    13.0663                34.1347                 4.7277

                    64                     65                     66
                     A                      A                      A
 Frequencies --  1504.1095              1507.2600              1514.2773
 Red. masses --     1.1505                 1.0417                 1.0954
 Frc consts  --     1.5335                 1.3943                 1.4799
 IR Inten    --    13.7760                 2.6428                 6.4975

                    67                     68                     69
                     A                      A                      A
 Frequencies --  1518.7125              1526.0969              1527.3381
 Red. masses --     1.0815                 1.0904                 1.0596
 Frc consts  --     1.4696                 1.4962                 1.4563
 IR Inten    --     4.8325                14.9975                22.7941

                    70                     71                     72
                     A                      A                      A
 Frequencies --  1528.1763              1529.9992              1541.2180
 Red. masses --     1.0709                 1.0916                 1.0900
 Frc consts  --     1.4735                 1.5055                 1.5255
 IR Inten    --    16.1101                11.8306                 8.1857

                    73                     74                     75
                     A                      A                      A
 Frequencies --  1567.1127              1677.4965              1761.2594
 Red. masses --     1.4225                 1.1030                 5.3898
 Frc consts  --     2.0582                 1.8286                 9.8508
 IR Inten    --    34.9821                87.8836               307.2929

                    76                     77                     78
                     A                      A                      A
 Frequencies --  3019.1416              3033.3698              3039.0248
 Red. masses --     1.0734                 1.0712                 1.0673
 Frc consts  --     5.7645                 5.8075                 5.8077
 IR Inten    --    16.6044               224.6909                65.7523

                    79                     80                     81
                     A                      A                      A
 Frequencies --  3041.1485              3050.1715              3053.6955
 Red. masses --     1.0714                 1.0655                 1.0629
 Frc consts  --     5.8379                 5.8406                 5.8395
 IR Inten    --     5.4899                34.1386                16.4750

                    82                     83                     84
                     A                      A                      A
 Frequencies --  3064.8674              3070.5443              3087.1820
 Red. masses --     1.0366                 1.0369                 1.0977
 Frc consts  --     5.7368                 5.7598                 6.1639
 IR Inten    --    15.9311                21.3864                13.1927

                    85                     86                     87
                     A                      A                      A
 Frequencies --  3089.4534              3093.6617              3103.1696
 Red. masses --     1.0964                 1.0891                 1.0954
 Frc consts  --     6.1656                 6.1416                 6.2148
 IR Inten    --    27.3998                 8.6319                14.4202

                    88                     89                     90
                     A                      A                      A
 Frequencies --  3104.9781              3107.1033              3117.3230
 Red. masses --     1.0913                 1.1013                 1.0605
 Frc consts  --     6.1989                 6.2641                 6.0718
 IR Inten    --    19.7283                28.1634                10.7262

                    91                     92                     93
                     A                      A                      A
 Frequencies --  3124.2097              3131.7227              3172.3440
 Red. masses --     1.1061                 1.1064                 1.1090
 Frc consts  --     6.3609                 6.3936                 6.5759
 IR Inten    --     9.1673                 8.4402                 0.0233

                    94                     95                     96
                     A                      A                      A
 Frequencies --  3180.3126              3210.3770              3468.5374
 Red. masses --     1.0994                 1.1004                 1.0767
 Frc consts  --     6.5516                 6.6823                 7.6323
 IR Inten    --    15.2728                 0.2766                44.9642

 - Thermochemistry -
 -------------------
 Temperature   298.150 Kelvin.  Pressure   1.00000 Atm.
 Atom     1 has atomic number  6 and mass  12.00000

 Molecular mass:   185.16539 amu.
 Principal axes and moments of inertia in atomic units:
                           1         2         3
     Eigenvalues --  1098.192344708.063985042.38197
           X            0.99998  -0.00408  -0.00546
           Y            0.00403   0.99995  -0.00861
           Z            0.00550   0.00858   0.99995
 This molecule is an asymmetric top.
 Rotational symmetry number  1.
 Warning -- assumption of classical behavior for rotation
           may cause significant error
 Rotational temperatures (Kelvin)      0.07887     0.01840     0.01718
 Rotational constants (GHZ):           1.64337     0.38333     0.35791
 Zero-point vibrational energy     829304.6 (Joules/Mol)
                                  198.20856 (Kcal/Mol)
 Warning -- explicit consideration of  21 degrees of freedom as
           vibrations may cause significant error
 Vibrational temperatures:     46.60    61.48    97.46   129.08   151.18
          (Kelvin)            193.93   200.16   263.83   325.51   383.55
                              419.30   440.65   474.92   572.50   584.76
                              614.16   666.28   687.25   769.08   810.62
                              889.86   921.08  1104.42  1126.92  1138.21
                             1185.72  1238.67  1258.40  1291.65  1354.63
                             1374.60  1399.68  1454.10  1485.49  1499.39
                             1515.17  1531.76  1561.81  1584.99  1627.49
                             1659.91  1674.42  1693.28  1703.84  1706.50
                             1814.78  1832.22  1840.02  1875.11  1881.77
                             1891.06  1948.41  1975.30  1997.43  2011.70
                             2019.65  2026.45  2036.02  2042.86  2077.69
                             2106.34  2121.66  2160.63  2164.08  2168.61
                             2178.70  2185.09  2195.71  2197.50  2198.70
                             2201.32  2217.47  2254.72  2413.54  2534.06
                             4343.87  4364.34  4372.47  4375.53  4388.51
                             4393.58  4409.66  4417.82  4441.76  4445.03
                             4451.08  4464.76  4467.37  4470.42  4485.13
                             4495.04  4505.84  4564.29  4575.75  4619.01
                             4990.45

 Zero-point correction=                           0.315865 (Hartree/Particle)
 Thermal correction to Energy=                    0.330050
 Thermal correction to Enthalpy=                  0.330994
 Thermal correction to Gibbs Free Energy=         0.273997
 Sum of electronic and zero-point Energies=           -577.928687
 Sum of electronic and thermal Energies=              -577.914502
 Sum of electronic and thermal Enthalpies=            -577.913558
 Sum of electronic and thermal Free Energies=         -577.970555

                     E (Thermal)             CV                S
                      KCal/Mol        Cal/Mol-Kelvin    Cal/Mol-Kelvin
 Total                  207.110             53.221            119.960
 Electronic               0.000              0.000              0.000
 Translational            0.889              2.981             41.554
 Rotational               0.889              2.981             31.634
 Vibrational            205.332             47.259             46.772
 Vibration     1          0.594              1.983              5.678
 Vibration     2          0.595              1.980              5.128
 Vibration     3          0.598              1.970              4.218
 Vibration     4          0.602              1.956              3.666
 Vibration     5          0.605              1.945              3.358
 Vibration     6          0.613              1.919              2.877
 Vibration     7          0.615              1.914              2.816
 Vibration     8          0.631              1.862              2.294
 Vibration     9          0.650              1.801              1.909
 Vibration    10          0.672              1.734              1.618
 Vibration    11          0.687              1.690              1.466
 Vibration    12          0.697              1.662              1.382
 Vibration    13          0.713              1.615              1.260
 Vibration    14          0.764              1.475              0.970
 Vibration    15          0.771              1.456              0.939
 Vibration    16          0.789              1.412              0.869
 Vibration    17          0.821              1.332              0.757
 Vibration    18          0.834              1.300              0.716
 Vibration    19          0.890              1.174              0.577
 Vibration    20          0.919              1.110              0.517
 Vibration    21          0.978              0.993              0.419

 Optimization completed.
    -- Stationary point found.
 Normal termination of Gaussian 09 at Fri Feb 16 19:49:54 2018.
