 Gaussian 09, Revision C.01,
 Gaussian 09:  AM64L-G09RevC.01 23-Sep-2011

 ----------------------------------------------------------------------
 #HF/6-31G* Geom=AllCheck Guess=Read Pop=(MK,ReadRadii) Integral=(Grid=
 UltraFine) iop(6/33=2)
 ----------------------------------------------------------------------

 Structure from the checkpoint file:  frag16-conf1.chk
 -----------------------------
 Optimization for frag16-conf1
 -----------------------------
 Charge =  0 Multiplicity = 1

                         Standard orientation:
 ---------------------------------------------------------------------
 Center     Atomic      Atomic             Coordinates (Angstroms)
 Number     Number       Type             X           Y           Z
 ---------------------------------------------------------------------
      1          6           0        0.938893    2.436241    0.247474
      2          6           0        2.342061   -0.379278   -0.091372
      3          6           0       -4.566071   -0.218385    0.055973
      4          6           0       -3.924521   -1.561803    0.431007
      5          6           0       -3.700782    0.539080   -0.960747
      6          6           0       -2.483574   -1.376415    0.929446
      7          6           0       -2.258604    0.722789   -0.461566
      8          6           0       -1.598575   -0.618363   -0.082271
      9          6           0        1.490388    3.774557   -0.225456
     10          6           0        4.002773   -2.118669    0.305939
     11          6           0        1.864336   -2.786669   -0.690456
     12          6           0       -0.171689   -0.474096    0.483060
     13          6           0        0.900098    0.032729   -0.515155
     14          7           0        0.881307    1.475928   -0.749420
     15          7           0        2.683400   -1.709481   -0.159284
     16          8           0        0.558437    2.266047    1.395707
     17          8           0        3.139922    0.475117    0.279686
     18          1           0       -5.576680   -0.376197   -0.342540
     19          1           0       -4.678520    0.394138    0.962770
     20          1           0       -4.523554   -2.072374    1.196141
     21          1           0       -3.921122   -2.219278   -0.451568
     22          1           0       -3.688466   -0.019861   -1.909133
     23          1           0       -4.144959    1.517583   -1.184721
     24          1           0       -2.496698   -0.814420    1.875513
     25          1           0       -2.035797   -2.353876    1.156989
     26          1           0       -1.660972    1.234482   -1.223211
     27          1           0       -2.253309    1.377535    0.421908
     28          1           0       -1.544689   -1.235194   -0.998025
     29          1           0        1.195154    4.013980   -1.253252
     30          1           0        1.140529    4.559118    0.447279
     31          1           0        2.585498    3.737779   -0.181764
     32          1           0        3.909257   -2.887049    1.084378
     33          1           0        4.513197   -1.246211    0.710102
     34          1           0        4.591986   -2.536077   -0.521811
     35          1           0        2.429664   -3.338739   -1.453335
     36          1           0        0.952223   -2.414031   -1.153000
     37          1           0        1.582927   -3.497157    0.099403
     38          1           0       -0.168789    0.191037    1.348226
     39          1           0        0.148624   -1.459213    0.843074
     40          1           0        0.690880   -0.417069   -1.494943
     41          1           0        1.405398    1.736348   -1.575965
 ---------------------------------------------------------------------

 SCF Done:  E(RHF) =  -764.909190445     A.U. after   14 cycles

 The electronic state is 1-A.
 Alpha  occ. eigenvalues --  -20.52529 -20.51852 -15.59697 -15.58200 -11.35381
 Alpha  occ. eigenvalues --  -11.34838 -11.28914 -11.27808 -11.25722 -11.22823
 Alpha  occ. eigenvalues --  -11.22684 -11.22218 -11.21648 -11.21590 -11.21397
 Alpha  occ. eigenvalues --  -11.21335 -11.20802  -1.38083  -1.36555  -1.24490
 Alpha  occ. eigenvalues --   -1.22513  -1.11653  -1.05601  -1.00644  -0.99546
 Alpha  occ. eigenvalues --   -0.98046  -0.96930  -0.93164  -0.87412  -0.82648
 Alpha  occ. eigenvalues --   -0.80201  -0.76865  -0.74876  -0.73509  -0.69831
 Alpha  occ. eigenvalues --   -0.69186  -0.65699  -0.65357  -0.63730  -0.62542
 Alpha  occ. eigenvalues --   -0.60623  -0.60008  -0.59846  -0.59000  -0.58124
 Alpha  occ. eigenvalues --   -0.57656  -0.56681  -0.56370  -0.55290  -0.54202
 Alpha  occ. eigenvalues --   -0.53418  -0.53270  -0.52010  -0.51300  -0.50147
 Alpha  occ. eigenvalues --   -0.49808  -0.48224  -0.47527  -0.46860  -0.44614
 Alpha  occ. eigenvalues --   -0.43211  -0.42268  -0.41776  -0.40283  -0.37926
 Alpha  occ. eigenvalues --   -0.37101
 Alpha virt. eigenvalues --    0.18444   0.20330   0.20405   0.22484   0.23281
 Alpha virt. eigenvalues --    0.24003   0.26458   0.26852   0.27793   0.28583
 Alpha virt. eigenvalues --    0.29737   0.30270   0.30568   0.30818   0.31606

 Mulliken atomic charges:
              1
     1  C    0.784012
     2  C    0.786935
     3  C   -0.308569
     4  C   -0.309690
     5  C   -0.311672
     6  C   -0.308561
     7  C   -0.311659
     8  C   -0.160090
     9  C   -0.597936
    10  C   -0.293907
    11  C   -0.288595
    12  C   -0.344764
    13  C   -0.062024
    14  N   -0.778142
    15  N   -0.668233
    16  O   -0.615294
    17  O   -0.630572
    18  H    0.158786
    19  H    0.154334
    20  H    0.161449
    21  H    0.146488
    22  H    0.143630
    23  H    0.161137
    24  H    0.161406
    25  H    0.152118
    26  H    0.175461
    27  H    0.171305
    28  H    0.133401
    29  H    0.172131
    30  H    0.210001
    31  H    0.213923
    32  H    0.164866
    33  H    0.240285
    34  H    0.161093
    35  H    0.178173
    36  H    0.187089
    37  H    0.177250
    38  H    0.259078
    39  H    0.169198
    40  H    0.189793
    41  H    0.376368
 Sum of Mulliken atomic charges =   0.00000

 Dipole moment (field-independent basis, Debye):
    X=              0.0180    Y=             -3.0777    Z=             -4.0443  Tot=              5.0822
 Quadrupole moment (field-independent basis, Debye-Ang):
   XX=           -109.5925   YY=            -97.1784   ZZ=           -107.9992
   XY=             -5.5585   XZ=             -5.7166   YZ=             -6.7347

 Normal termination of Gaussian 09 at Sat Feb 17 20:59:51 2018.
