 Gaussian 09, Revision C.01,
 Gaussian 09:  AM64L-G09RevC.01 23-Sep-2011

 ---------------------------------------------------------
 #B3LYP/6-31G* Integral=(Grid=UltraFine) freq Opt pop=none
 ---------------------------------------------------------

 99/9=1/99;
 -----------------------------
 Optimization for frag16-conf1
 -----------------------------
 Charge =  0 Multiplicity = 1

 SCF Done:  E(RB3LYP) =  -769.813424454     A.U. after   15 cycles
 SCF Done:  E(RB3LYP) =  -769.818041982     A.U. after   13 cycles
 SCF Done:  E(RB3LYP) =  -769.818441513     A.U. after   13 cycles
 SCF Done:  E(RB3LYP) =  -769.819265776     A.U. after   12 cycles
 SCF Done:  E(RB3LYP) =  -769.819238944     A.U. after   13 cycles
 SCF Done:  E(RB3LYP) =  -769.819713294     A.U. after   12 cycles
 SCF Done:  E(RB3LYP) =  -769.820229866     A.U. after   13 cycles
 SCF Done:  E(RB3LYP) =  -769.820473378     A.U. after   11 cycles
 SCF Done:  E(RB3LYP) =  -769.820490891     A.U. after   12 cycles
 SCF Done:  E(RB3LYP) =  -769.820681381     A.U. after   11 cycles
 SCF Done:  E(RB3LYP) =  -769.821056857     A.U. after    9 cycles
 SCF Done:  E(RB3LYP) =  -769.821058434     A.U. after    8 cycles
 SCF Done:  E(RB3LYP) =  -769.821058667     A.U. after    8 cycles
 SCF Done:  E(RB3LYP) =  -769.821058745     A.U. after    7 cycles
 SCF Done:  E(RB3LYP) =  -769.821058847     A.U. after    7 cycles
 SCF Done:  E(RB3LYP) =  -769.821058916     A.U. after    7 cycles
 SCF Done:  E(RB3LYP) =  -769.821058962     A.U. after    7 cycles
 SCF Done:  E(RB3LYP) =  -769.821059001     A.U. after    7 cycles
 SCF Done:  E(RB3LYP) =  -769.821059034     A.U. after    7 cycles
 Optimization completed.
    -- Stationary point found.
 Normal termination of Gaussian 09 at Fri Feb 16 19:52:40 2018.

 --------------------------------------------------------------------
 #N Geom=AllCheck Guess=TCheck SCRF=Check GenChk RB3LYP/6-31G(d) Freq
 --------------------------------------------------------------------

 Structure from the checkpoint file:  frag16-conf1.chk
 -----------------------------
 Optimization for frag16-conf1
 -----------------------------
 Charge =  0 Multiplicity = 1

                         Standard orientation:
 ---------------------------------------------------------------------
 Center     Atomic      Atomic             Coordinates (Angstroms)
 Number     Number       Type             X           Y           Z
 ---------------------------------------------------------------------
      1          6           0        0.938893    2.436241    0.247474
      2          6           0        2.342061   -0.379278   -0.091372
      3          6           0       -4.566071   -0.218385    0.055973
      4          6           0       -3.924521   -1.561803    0.431007
      5          6           0       -3.700782    0.539080   -0.960747
      6          6           0       -2.483574   -1.376415    0.929446
      7          6           0       -2.258604    0.722789   -0.461566
      8          6           0       -1.598575   -0.618363   -0.082271
      9          6           0        1.490388    3.774557   -0.225456
     10          6           0        4.002773   -2.118669    0.305939
     11          6           0        1.864336   -2.786669   -0.690456
     12          6           0       -0.171689   -0.474096    0.483060
     13          6           0        0.900098    0.032729   -0.515155
     14          7           0        0.881307    1.475928   -0.749420
     15          7           0        2.683400   -1.709481   -0.159284
     16          8           0        0.558437    2.266047    1.395707
     17          8           0        3.139922    0.475117    0.279686
     18          1           0       -5.576680   -0.376197   -0.342540
     19          1           0       -4.678520    0.394138    0.962770
     20          1           0       -4.523554   -2.072374    1.196141
     21          1           0       -3.921122   -2.219278   -0.451568
     22          1           0       -3.688466   -0.019861   -1.909133
     23          1           0       -4.144959    1.517583   -1.184721
     24          1           0       -2.496698   -0.814420    1.875513
     25          1           0       -2.035797   -2.353876    1.156989
     26          1           0       -1.660972    1.234482   -1.223211
     27          1           0       -2.253309    1.377535    0.421908
     28          1           0       -1.544689   -1.235194   -0.998025
     29          1           0        1.195154    4.013980   -1.253252
     30          1           0        1.140529    4.559118    0.447279
     31          1           0        2.585498    3.737779   -0.181764
     32          1           0        3.909257   -2.887049    1.084378
     33          1           0        4.513197   -1.246211    0.710102
     34          1           0        4.591986   -2.536077   -0.521811
     35          1           0        2.429664   -3.338739   -1.453335
     36          1           0        0.952223   -2.414031   -1.153000
     37          1           0        1.582927   -3.497157    0.099403
     38          1           0       -0.168789    0.191037    1.348226
     39          1           0        0.148624   -1.459213    0.843074
     40          1           0        0.690880   -0.417069   -1.494943
     41          1           0        1.405398    1.736348   -1.575965
 ---------------------------------------------------------------------

 SCF Done:  E(RB3LYP) =  -769.821059034     A.U. after    1 cycles

 Isotropic polarizability for W=    0.000000      153.28 Bohr**3.
 End of Minotr Frequency-dependent properties file   721 does not exist.

                     1                      2                      3
                     A                      A                      A
 Frequencies --    21.7218                36.6519                53.5515
 Red. masses --     3.7284                 3.7087                 4.6976
 Frc consts  --     0.0010                 0.0029                 0.0079
 IR Inten    --     2.0717                 1.5019                 1.7022

                     4                      5                      6
                     A                      A                      A
 Frequencies --    63.1482                69.0450                73.1291
 Red. masses --     3.2417                 2.4510                 2.7908
 Frc consts  --     0.0076                 0.0069                 0.0088
 IR Inten    --     4.1309                 3.6801                 1.6218

                     7                      8                      9
                     A                      A                      A
 Frequencies --    88.8462               109.6170               119.5644
 Red. masses --     2.3525                 1.0876                 2.4438
 Frc consts  --     0.0109                 0.0077                 0.0206
 IR Inten    --     2.0752                 0.0868                 0.4247

                    10                     11                     12
                     A                      A                      A
 Frequencies --   144.1313               151.2534               186.7473
 Red. masses --     1.0919                 3.3159                 4.1118
 Frc consts  --     0.0134                 0.0447                 0.0845
 IR Inten    --     0.5488                 0.8701                 2.1619

                    13                     14                     15
                     A                      A                      A
 Frequencies --   227.5954               238.0334               256.7964
 Red. masses --     1.9335                 2.5663                 3.3539
 Frc consts  --     0.0590                 0.0857                 0.1303
 IR Inten    --     0.1218                 1.8839                 3.2269

                    16                     17                     18
                     A                      A                      A
 Frequencies --   260.5552               271.9740               337.9093
 Red. masses --     3.2032                 2.4967                 2.0317
 Frc consts  --     0.1281                 0.1088                 0.1367
 IR Inten    --     1.2453                 2.6207                 0.8028

                    19                     20                     21
                     A                      A                      A
 Frequencies --   350.4323               395.6452               402.7334
 Red. masses --     2.4760                 2.9212                 3.3473
 Frc consts  --     0.1791                 0.2694                 0.3199
 IR Inten    --     3.4502                 9.1814                18.0719

                    22                     23                     24
                     A                      A                      A
 Frequencies --   433.3254               442.3712               444.5525
 Red. masses --     2.7003                 2.4718                 2.4528
 Frc consts  --     0.2987                 0.2850                 0.2856
 IR Inten    --     0.0348                 1.4533                 2.3473

                    25                     26                     27
                     A                      A                      A
 Frequencies --   453.1160               519.5615               546.7455
 Red. masses --     3.0437                 3.7336                 1.7359
 Frc consts  --     0.3682                 0.5938                 0.3057
 IR Inten    --     3.6250                16.1708                 0.5171

                    28                     29                     30
                     A                      A                      A
 Frequencies --   590.7684               595.1492               634.5819
 Red. masses --     3.1476                 1.5310                 4.1342
 Frc consts  --     0.6472                 0.3195                 0.9809
 IR Inten    --     6.4019                61.7156                21.1414

                    31                     32                     33
                     A                      A                      A
 Frequencies --   697.0087               712.8917               787.4629
 Red. masses --     2.8170                 4.9954                 2.6005
 Frc consts  --     0.8063                 1.4958                 0.9501
 IR Inten    --     8.3782                16.1585                 1.4616

                    34                     35                     36
                     A                      A                      A
 Frequencies --   800.5902               849.7757               851.4845
 Red. masses --     1.5587                 3.1913                 3.3527
 Frc consts  --     0.5886                 1.3578                 1.4322
 IR Inten    --     0.3871                 2.3588                 5.5314

                    37                     38                     39
                     A                      A                      A
 Frequencies --   859.5994               880.3611               912.1355
 Red. masses --     1.7673                 2.9562                 1.9145
 Frc consts  --     0.7694                 1.3499                 0.9385
 IR Inten    --     6.3232                 0.2226                 3.4152

                    40                     41                     42
                     A                      A                      A
 Frequencies --   927.2836               945.9422               971.3537
 Red. masses --     1.5407                 1.9119                 3.3320
 Frc consts  --     0.7805                 1.0080                 1.8523
 IR Inten    --     5.3801                 1.4940                 5.1095

                    43                     44                     45
                     A                      A                      A
 Frequencies --   982.5647              1008.2929              1034.6507
 Red. masses --     2.2935                 1.8231                 2.0172
 Frc consts  --     1.3046                 1.0921                 1.2723
 IR Inten    --     0.9199                10.8180                 7.1811

                    46                     47                     48
                     A                      A                      A
 Frequencies --  1048.8431              1061.8275              1074.4843
 Red. masses --     1.8317                 1.7348                 1.4272
 Frc consts  --     1.1872                 1.1524                 0.9708
 IR Inten    --     0.5470                 9.7264                 1.8363

                    49                     50                     51
                     A                      A                      A
 Frequencies --  1088.1764              1098.2913              1101.9397
 Red. masses --     1.3755                 2.1207                 1.4486
 Frc consts  --     0.9596                 1.5072                 1.0364
 IR Inten    --     5.0664                 1.0250                 0.4079

                    52                     53                     54
                     A                      A                      A
 Frequencies --  1114.4286              1138.2866              1138.7571
 Red. masses --     2.4683                 2.1477                 1.3245
 Frc consts  --     1.8061                 1.6396                 1.0120
 IR Inten    --     1.1347                92.0968                19.1456

                    55                     56                     57
                     A                      A                      A
 Frequencies --  1155.7312              1181.5538              1185.4932
 Red. masses --     2.1440                 1.9100                 1.5291
 Frc consts  --     1.6873                 1.5710                 1.2662
 IR Inten    --    45.9380                14.8095                 7.0522

                    58                     59                     60
                     A                      A                      A
 Frequencies --  1217.1392              1240.6014              1278.3570
 Red. masses --     1.4768                 1.4938                 2.3951
 Frc consts  --     1.2890                 1.3546                 2.3061
 IR Inten    --     1.5578                 9.6965                91.2839

                    61                     62                     63
                     A                      A                      A
 Frequencies --  1286.7468              1296.9106              1299.2026
 Red. masses --     2.7536                 1.4779                 1.3289
 Frc consts  --     2.6862                 1.4646                 1.3215
 IR Inten    --    81.7114                16.2196                26.6359

                    64                     65                     66
                     A                      A                      A
 Frequencies --  1305.4515              1320.6737              1341.9062
 Red. masses --     1.2733                 1.2467                 1.2388
 Frc consts  --     1.2785                 1.2811                 1.3143
 IR Inten    --     5.0858                 1.5036                 2.9030

                    67                     68                     69
                     A                      A                      A
 Frequencies --  1361.0499              1385.0597              1391.2574
 Red. masses --     1.2642                 1.3826                 1.3660
 Frc consts  --     1.3797                 1.5627                 1.5578
 IR Inten    --     0.9756                 7.0808                13.7781

                    70                     71                     72
                     A                      A                      A
 Frequencies --  1400.2112              1402.2031              1404.8131
 Red. masses --     1.4735                 1.4479                 1.4480
 Frc consts  --     1.7022                 1.6773                 1.6837
 IR Inten    --     4.7769                21.6450                32.4496

                    73                     74                     75
                     A                      A                      A
 Frequencies --  1408.9557              1413.0120              1422.9486
 Red. masses --     1.4438                 1.3158                 1.5220
 Frc consts  --     1.6887                 1.5479                 1.8157
 IR Inten    --    19.1225                48.3715                 9.5280

                    76                     77                     78
                     A                      A                      A
 Frequencies --  1441.9915              1454.5196              1497.9427
 Red. masses --     1.9445                 1.2796                 1.1736
 Frc consts  --     2.3823                 1.5950                 1.5516
 IR Inten    --    47.0106                20.3872                21.1651

                    79                     80                     81
                     A                      A                      A
 Frequencies --  1501.6772              1508.4432              1512.1724
 Red. masses --     1.0691                 1.0613                 1.0780
 Frc consts  --     1.4205                 1.4227                 1.4524
 IR Inten    --    12.2985                 8.2555                 2.1242

                    82                     83                     84
                     A                      A                      A
 Frequencies --  1515.3926              1515.7710              1517.8073
 Red. masses --     1.0552                 1.0913                 1.0935
 Frc consts  --     1.4277                 1.4773                 1.4842
 IR Inten    --     5.9799                 1.2452                 2.0982

                    85                     86                     87
                     A                      A                      A
 Frequencies --  1522.6019              1527.8184              1530.3389
 Red. masses --     1.0854                 1.0660                 1.0679
 Frc consts  --     1.4826                 1.4661                 1.4735
 IR Inten    --     8.4801                23.6967                 7.8796

                    88                     89                     90
                     A                      A                      A
 Frequencies --  1533.7990              1537.5281              1560.1676
 Red. masses --     1.0545                 1.0972                 1.2917
 Frc consts  --     1.4616                 1.5282                 1.8525
 IR Inten    --     7.6068                 1.6402                30.0552

                    91                     92                     93
                     A                      A                      A
 Frequencies --  1568.6463              1753.9131              1805.1374
 Red. masses --     1.3654                10.1682                 8.3097
 Frc consts  --     1.9795                18.4294                15.9535
 IR Inten    --   129.9579               260.5573               177.2173

                    94                     95                     96
                     A                      A                      A
 Frequencies --  2954.2371              3013.2389              3016.7289
 Red. masses --     1.0816                 1.0685                 1.0702
 Frc consts  --     5.5617                 5.7158                 5.7382
 IR Inten    --    29.3316                29.7531                24.2162

                    97                     98                     99
                     A                      A                      A
 Frequencies --  3017.8045              3024.1699              3025.0550
 Red. masses --     1.0603                 1.0618                 1.0416
 Frc consts  --     5.6895                 5.7213                 5.6158
 IR Inten    --    14.2247                25.7126                24.5707

                   100                    101                    102
                     A                      A                      A
 Frequencies --  3031.9572              3034.1646              3036.4563
 Red. masses --     1.0762                 1.0466                 1.0678
 Frc consts  --     5.8289                 5.6771                 5.8007
 IR Inten    --    16.2650               104.9241                24.6723

                   103                    104                    105
                     A                      A                      A
 Frequencies --  3055.5766              3056.1984              3063.7055
 Red. masses --     1.0977                 1.0380                 1.0740
 Frc consts  --     6.0381                 5.7122                 5.9394
 IR Inten    --    28.0347                 7.4326                78.0627

                   106                    107                    108
                     A                      A                      A
 Frequencies --  3066.1033              3067.0416              3068.6926
 Red. masses --     1.0978                 1.0911                 1.1028
 Frc consts  --     6.0804                 6.0473                 6.1188
 IR Inten    --    49.4484                58.5185                44.5547

                   109                    110                    111
                     A                      A                      A
 Frequencies --  3073.2256              3078.8899              3097.9874
 Red. masses --     1.1035                 1.1045                 1.0960
 Frc consts  --     6.1405                 6.1686                 6.1975
 IR Inten    --    85.9180                26.1342                29.7827

                   112                    113                    114
                     A                      A                      A
 Frequencies --  3119.5876              3152.0960              3170.7202
 Red. masses --     1.1017                 1.0921                 1.1006
 Frc consts  --     6.3167                 6.3933                 6.5192
 IR Inten    --    12.6981                 4.0855                 8.9487

                   115                    116                    117
                     A                      A                      A
 Frequencies --  3188.6111              3196.6230              3579.7333
 Red. masses --     1.0934                 1.0956                 1.0760
 Frc consts  --     6.5500                 6.5962                 8.1236
 IR Inten    --    13.3966                 2.1106                 9.0016

 - Thermochemistry -
 -------------------
 Temperature   298.150 Kelvin.  Pressure   1.00000 Atm.
 Atom     1 has atomic number  6 and mass  12.00000

 Molecular mass:   240.18378 amu.
 Principal axes and moments of inertia in atomic units:
                           1         2         3
     Eigenvalues --  3050.672696132.140688389.92230
           X            0.99997  -0.00790  -0.00176
           Y            0.00788   0.99988  -0.01363
           Z            0.00187   0.01361   0.99991
 This molecule is an asymmetric top.
 Rotational symmetry number  1.
 Warning -- assumption of classical behavior for rotation
           may cause significant error
 Rotational temperatures (Kelvin)      0.02839     0.01412     0.01032
 Rotational constants (GHZ):           0.59159     0.29431     0.21511
 Zero-point vibrational energy     964783.7 (Joules/Mol)
                                  230.58883 (Kcal/Mol)
 Warning -- explicit consideration of  29 degrees of freedom as
           vibrations may cause significant error
 Vibrational temperatures:     31.25    52.73    77.05    90.86    99.34
          (Kelvin)            105.22   127.83   157.71   172.03   207.37
                              217.62   268.69   327.46   342.48   369.47
                              374.88   391.31   486.18   504.19   569.24
                              579.44   623.46   636.47   639.61   651.93
                              747.53   786.64   849.98   856.29   913.02
                             1002.84  1025.69  1132.98  1151.87  1222.64
                             1225.09  1236.77  1266.64  1312.36  1334.15
                             1361.00  1397.56  1413.69  1450.71  1488.63
                             1509.05  1527.73  1545.94  1565.64  1580.19
                             1585.44  1603.41  1637.74  1638.42  1662.84
                             1699.99  1705.66  1751.19  1784.95  1839.27
                             1851.34  1865.96  1869.26  1878.25  1900.15
                             1930.70  1958.24  1992.79  2001.71  2014.59
                             2017.45  2021.21  2027.17  2033.01  2047.30
                             2074.70  2092.73  2155.20  2160.58  2170.31
                             2175.68  2180.31  2180.85  2183.78  2190.68
                             2198.19  2201.81  2206.79  2212.16  2244.73
                             2256.93  2523.49  2597.19  4250.48  4335.37
                             4340.39  4341.94  4351.10  4352.37  4362.30
                             4365.48  4368.78  4396.29  4397.18  4407.98
                             4411.43  4412.78  4415.16  4421.68  4429.83
                             4457.31  4488.39  4535.16  4561.95  4587.69
                             4599.22  5150.43

 Zero-point correction=                           0.367467 (Hartree/Particle)
 Thermal correction to Energy=                    0.386520
 Thermal correction to Enthalpy=                  0.387464
 Thermal correction to Gibbs Free Energy=         0.318510
 Sum of electronic and zero-point Energies=           -769.453592
 Sum of electronic and thermal Energies=              -769.434539
 Sum of electronic and thermal Enthalpies=            -769.433595
 Sum of electronic and thermal Free Energies=         -769.502549

                     E (Thermal)             CV                S
                      KCal/Mol        Cal/Mol-Kelvin    Cal/Mol-Kelvin
 Total                  242.545             70.015            145.126
 Electronic               0.000              0.000              0.000
 Translational            0.889              2.981             42.330
 Rotational               0.889              2.981             33.417
 Vibrational            240.768             64.053             69.379
 Vibration     1          0.593              1.985              6.470
 Vibration     2          0.594              1.982              5.432
 Vibration     3          0.596              1.976              4.682
 Vibration     4          0.597              1.972              4.356
 Vibration     5          0.598              1.969              4.180
 Vibration     6          0.599              1.967              4.067
 Vibration     7          0.602              1.957              3.685
 Vibration     8          0.606              1.942              3.276
 Vibration     9          0.609              1.933              3.107
 Vibration    10          0.616              1.909              2.748
 Vibration    11          0.619              1.901              2.656
 Vibration    12          0.632              1.858              2.260
 Vibration    13          0.651              1.799              1.898
 Vibration    14          0.656              1.782              1.818
 Vibration    15          0.666              1.751              1.683
 Vibration    16          0.669              1.745              1.658
 Vibration    17          0.675              1.725              1.584
 Vibration    18          0.718              1.600              1.222
 Vibration    19          0.727              1.574              1.164
 Vibration    20          0.762              1.479              0.979
 Vibration    21          0.768              1.464              0.953
 Vibration    22          0.794              1.398              0.848
 Vibration    23          0.802              1.378              0.819
 Vibration    24          0.804              1.373              0.812
 Vibration    25          0.812              1.354              0.786
 Vibration    26          0.875              1.207              0.611
 Vibration    27          0.902              1.147              0.551
 Vibration    28          0.948              1.051              0.466
 Vibration    29          0.953              1.042              0.458

 Normal termination of Gaussian 09 at Fri Feb 16 21:05:32 2018.
