 Gaussian 09, Revision C.01,
 Gaussian 09:  AM64L-G09RevC.01 23-Sep-2011

 ---------------------------------------------------------
 #B3LYP/6-31G* Integral=(Grid=UltraFine) freq Opt pop=none
 ---------------------------------------------------------

 99/9=1/99;
 -----------------------------
 Optimization for frag13-conf1
 -----------------------------
 Charge =  1 Multiplicity = 1

 SCF Done:  E(RB3LYP) =  -578.233417963     A.U. after   14 cycles
 SCF Done:  E(RB3LYP) =  -578.240077873     A.U. after   13 cycles
 SCF Done:  E(RB3LYP) =  -578.241350832     A.U. after   12 cycles
 SCF Done:  E(RB3LYP) =  -578.242188595     A.U. after   12 cycles
 SCF Done:  E(RB3LYP) =  -578.243034979     A.U. after   14 cycles
 SCF Done:  E(RB3LYP) =  -578.243893239     A.U. after   11 cycles
 SCF Done:  E(RB3LYP) =  -578.244104126     A.U. after   11 cycles
 SCF Done:  E(RB3LYP) =  -578.244324598     A.U. after   12 cycles
 SCF Done:  E(RB3LYP) =  -578.244493578     A.U. after   10 cycles
 SCF Done:  E(RB3LYP) =  -578.244529649     A.U. after   10 cycles
 SCF Done:  E(RB3LYP) =  -578.244546853     A.U. after   10 cycles
 SCF Done:  E(RB3LYP) =  -578.244554351     A.U. after   10 cycles
 SCF Done:  E(RB3LYP) =  -578.244558077     A.U. after   10 cycles
 SCF Done:  E(RB3LYP) =  -578.244558834     A.U. after    8 cycles
 SCF Done:  E(RB3LYP) =  -578.244559320     A.U. after    7 cycles
 SCF Done:  E(RB3LYP) =  -578.244559857     A.U. after    7 cycles
 SCF Done:  E(RB3LYP) =  -578.244560384     A.U. after    7 cycles
 SCF Done:  E(RB3LYP) =  -578.244560672     A.U. after    7 cycles
 SCF Done:  E(RB3LYP) =  -578.244560704     A.U. after    7 cycles
 Optimization completed.
    -- Stationary point found.
 Normal termination of Gaussian 09 at Fri Feb 16 18:46:52 2018.

 --------------------------------------------------------------------
 #N Geom=AllCheck Guess=TCheck SCRF=Check GenChk RB3LYP/6-31G(d) Freq
 --------------------------------------------------------------------

 Structure from the checkpoint file:  frag13-conf1.chk
 -----------------------------
 Optimization for frag13-conf1
 -----------------------------
 Charge =  1 Multiplicity = 1

                         Standard orientation:
 ---------------------------------------------------------------------
 Center     Atomic      Atomic             Coordinates (Angstroms)
 Number     Number       Type             X           Y           Z
 ---------------------------------------------------------------------
      1          6           0        2.083766   -0.341980   -0.129851
      2          6           0       -4.031104    0.178235   -0.486748
      3          6           0       -3.048154    1.358444   -0.444241
      4          6           0       -3.293289   -1.169199   -0.475761
      5          6           0       -2.092376    1.257856    0.758527
      6          6           0       -2.334632   -1.279173    0.723964
      7          6           0       -1.365669   -0.091948    0.831702
      8          6           0        4.462951   -0.789046    0.003247
      9          6           0        3.677896    1.561786   -0.013756
     10          6           0        0.893527    0.656698   -0.186099
     11          7           0        3.329382    0.142533   -0.049585
     12          7           0       -0.329875   -0.203659   -0.289726
     13          8           0        1.791508   -1.545816   -0.159253
     14          1           0       -4.696953    0.233224    0.385300
     15          1           0       -4.670650    0.251969   -1.372604
     16          1           0       -2.479156    1.399849   -1.388097
     17          1           0       -3.587798    2.309689   -0.391008
     18          1           0       -4.006341   -1.999104   -0.437936
     19          1           0       -2.744035   -1.299672   -1.422095
     20          1           0       -1.376772    2.089945    0.765692
     21          1           0       -2.668809    1.350078    1.687202
     22          1           0       -2.917197   -1.288424    1.653426
     23          1           0       -1.776596   -2.224242    0.705590
     24          1           0       -0.771187   -0.170280    1.747693
     25          1           0        5.126907   -0.607428   -0.848217
     26          1           0        4.088391   -1.810025   -0.033509
     27          1           0        5.022825   -0.633382    0.931193
     28          1           0        4.237609    1.782496    0.901480
     29          1           0        2.792977    2.197845   -0.035844
     30          1           0        4.306867    1.813247   -0.874711
     31          1           0        0.827539    1.260968    0.720693
     32          1           0        0.948133    1.324136   -1.048030
     33          1           0        0.094198   -1.170659   -0.292762
     34          1           0       -0.796071   -0.065848   -1.190162
 ---------------------------------------------------------------------

 SCF Done:  E(RB3LYP) =  -578.244560704     A.U. after    1 cycles

 Isotropic polarizability for W=    0.000000      119.10 Bohr**3.
 End of Minotr Frequency-dependent properties file   721 does not exist.

                     1                      2                      3
                     A                      A                      A
 Frequencies --    17.5633                41.6037                65.6243
 Red. masses --     3.1096                 3.3850                 2.2333
 Frc consts  --     0.0006                 0.0035                 0.0057
 IR Inten    --     1.3675                 2.4451                 2.8898

                     4                      5                      6
                     A                      A                      A
 Frequencies --    88.4903               101.4963               110.2121
 Red. masses --     1.3960                 1.4047                 2.4148
 Frc consts  --     0.0064                 0.0085                 0.0173
 IR Inten    --     0.2008                 1.5643                 0.7615

                     7                      8                      9
                     A                      A                      A
 Frequencies --   138.6754               185.8070               224.4189
 Red. masses --     2.7759                 2.6246                 2.6922
 Frc consts  --     0.0315                 0.0534                 0.0799
 IR Inten    --     4.5713                 1.1467                 1.8201

                    10                     11                     12
                     A                      A                      A
 Frequencies --   256.0000               265.8637               294.0945
 Red. masses --     2.2723                 2.4891                 2.0244
 Frc consts  --     0.0877                 0.1037                 0.1032
 IR Inten    --     4.7212                 3.7346                 0.2658

                    13                     14                     15
                     A                      A                      A
 Frequencies --   362.2789               395.4728               402.4513
 Red. masses --     1.9741                 2.4029                 2.5768
 Frc consts  --     0.1527                 0.2214                 0.2459
 IR Inten    --     6.1789                23.6650                 6.1867

                    16                     17                     18
                     A                      A                      A
 Frequencies --   436.6687               467.5171               481.4652
 Red. masses --     3.0240                 3.0271                 2.0630
 Frc consts  --     0.3397                 0.3898                 0.2818
 IR Inten    --    71.9943                 2.8958                18.9263

                    19                     20                     21
                     A                      A                      A
 Frequencies --   526.0163               566.7047               620.9983
 Red. masses --     2.2609                 3.3776                 5.2544
 Frc consts  --     0.3686                 0.6391                 1.1939
 IR Inten    --     8.4082                 3.2447                21.6817

                    22                     23                     24
                     A                      A                      A
 Frequencies --   632.8385               759.3917               789.6059
 Red. masses --     2.0476                 3.9108                 1.4867
 Frc consts  --     0.4831                 1.3288                 0.5461
 IR Inten    --    15.9729                16.4268                 0.3622

                    25                     26                     27
                     A                      A                      A
 Frequencies --   805.2465               824.3571               861.0039
 Red. masses --     3.8558                 1.9257                 2.2609
 Frc consts  --     1.4731                 0.7710                 0.9875
 IR Inten    --     9.2383                 5.7472                 0.7854

                    28                     29                     30
                     A                      A                      A
 Frequencies --   875.7671               907.6105               935.7941
 Red. masses --     2.2175                 1.9807                 1.4732
 Frc consts  --     1.0021                 0.9613                 0.7601
 IR Inten    --     2.8380                10.8581                 0.2341

                    31                     32                     33
                     A                      A                      A
 Frequencies --   950.6518               971.1747              1009.0203
 Red. masses --     2.2811                 2.3848                 1.9536
 Frc consts  --     1.2146                 1.3252                 1.1719
 IR Inten    --     5.6421                 5.0042                 1.1035

                    34                     35                     36
                     A                      A                      A
 Frequencies --  1036.3696              1041.9160              1053.5893
 Red. masses --     4.1758                 1.9944                 2.0814
 Frc consts  --     2.6425                 1.2756                 1.3613
 IR Inten    --    22.8318                 0.4688                 7.1252

                    37                     38                     39
                     A                      A                      A
 Frequencies --  1062.1152              1085.7404              1099.3754
 Red. masses --     1.6596                 1.4369                 1.7403
 Frc consts  --     1.1031                 0.9980                 1.2393
 IR Inten    --     6.5022                 9.1648                 1.0533

                    40                     41                     42
                     A                      A                      A
 Frequencies --  1131.3812              1153.7199              1155.1440
 Red. masses --     1.2220                 1.4019                 1.2895
 Frc consts  --     0.9216                 1.0995                 1.0138
 IR Inten    --     0.1008                 6.9970                 6.0251

                    43                     44                     45
                     A                      A                      A
 Frequencies --  1183.2965              1184.5425              1184.6401
 Red. masses --     1.5447                 1.6014                 1.5846
 Frc consts  --     1.2744                 1.3239                 1.3102
 IR Inten    --    27.8557                28.2065                46.3512

                    46                     47                     48
                     A                      A                      A
 Frequencies --  1242.5340              1273.4783              1291.1843
 Red. masses --     1.1903                 4.1893                 1.2708
 Frc consts  --     1.0828                 4.0029                 1.2483
 IR Inten    --     0.4548                48.1995                 2.8877

                    49                     50                     51
                     A                      A                      A
 Frequencies --  1299.3932              1308.1941              1314.4620
 Red. masses --     1.1970                 1.2134                 1.2075
 Frc consts  --     1.1907                 1.2235                 1.2292
 IR Inten    --   127.6808                11.4977                 7.8223

                    52                     53                     54
                     A                      A                      A
 Frequencies --  1358.9829              1368.6265              1373.9030
 Red. masses --     1.5087                 1.3075                 1.3850
 Frc consts  --     1.6417                 1.4430                 1.5403
 IR Inten    --     1.3044                 6.9999                 0.9554

                    55                     56                     57
                     A                      A                      A
 Frequencies --  1397.5524              1404.5147              1409.1429
 Red. masses --     1.4188                 1.4763                 1.4124
 Frc consts  --     1.6328                 1.7159                 1.6524
 IR Inten    --     0.1774                18.9358                14.0887

                    58                     59                     60
                     A                      A                      A
 Frequencies --  1411.2535              1441.3015              1447.6853
 Red. masses --     1.4263                 1.3738                 1.2256
 Frc consts  --     1.6737                 1.6814                 1.5133
 IR Inten    --     0.4870               368.8641                18.1376

                    61                     62                     63
                     A                      A                      A
 Frequencies --  1464.2668              1474.9984              1503.2731
 Red. masses --     1.1609                 1.9089                 1.2287
 Frc consts  --     1.4665                 2.4468                 1.6360
 IR Inten    --    15.9477                31.0753                12.7596

                    64                     65                     66
                     A                      A                      A
 Frequencies --  1506.9490              1508.1491              1512.7322
 Red. masses --     1.0408                 1.0820                 1.0911
 Frc consts  --     1.3926                 1.4500                 1.4711
 IR Inten    --     2.0877                 4.9757                 4.4814

                    67                     68                     69
                     A                      A                      A
 Frequencies --  1517.1061              1523.7279              1526.0927
 Red. masses --     1.0872                 1.0880                 1.0817
 Frc consts  --     1.4743                 1.4884                 1.4843
 IR Inten    --    34.2573                 8.5813                11.0641

                    70                     71                     72
                     A                      A                      A
 Frequencies --  1527.4032              1529.4154              1537.9563
 Red. masses --     1.0427                 1.0970                 1.0934
 Frc consts  --     1.4333                 1.5119                 1.5238
 IR Inten    --    28.8084                 7.2043                 5.8038

                    73                     74                     75
                     A                      A                      A
 Frequencies --  1567.2401              1658.0654              1768.7697
 Red. masses --     1.4152                 1.1063                 5.2456
 Frc consts  --     2.0480                 1.7920                 9.6691
 IR Inten    --    41.2706                96.6591               265.3928

                    76                     77                     78
                     A                      A                      A
 Frequencies --  2984.5001              2994.2561              3006.7386
 Red. masses --     1.0720                 1.0745                 1.0744
 Frc consts  --     5.6258                 5.6761                 5.7228
 IR Inten    --   452.7549                22.0699                32.3569

                    79                     80                     81
                     A                      A                      A
 Frequencies --  3049.7060              3053.8155              3055.3256
 Red. masses --     1.0660                 1.0620                 1.0645
 Frc consts  --     5.8413                 5.8350                 5.8547
 IR Inten    --    26.1389                15.2576                14.7239

                    82                     83                     84
                     A                      A                      A
 Frequencies --  3064.5850              3070.4089              3092.2519
 Red. masses --     1.0365                 1.0368                 1.1016
 Frc consts  --     5.7353                 5.7589                 6.2060
 IR Inten    --    14.3657                22.6579                14.7365

                    85                     86                     87
                     A                      A                      A
 Frequencies --  3094.7537              3097.4804              3103.7721
 Red. masses --     1.0979                 1.0903                 1.0900
 Frc consts  --     6.1953                 6.1634                 6.1868
 IR Inten    --    24.5254                 9.9391                14.9734

                    88                     89                     90
                     A                      A                      A
 Frequencies --  3106.1178              3106.6250              3115.8069
 Red. masses --     1.0933                 1.0971                 1.0604
 Frc consts  --     6.2151                 6.2385                 6.0653
 IR Inten    --    16.7510                22.8438                10.7579

                    91                     92                     93
                     A                      A                      A
 Frequencies --  3123.8603              3131.6413              3171.1730
 Red. masses --     1.1061                 1.1065                 1.1094
 Frc consts  --     6.3596                 6.3933                 6.5730
 IR Inten    --     9.3082                 8.6945                 0.0459

                    94                     95                     96
                     A                      A                      A
 Frequencies --  3179.8498              3210.2775              3479.2638
 Red. masses --     1.0994                 1.1005                 1.0762
 Frc consts  --     6.5498                 6.6821                 7.6754
 IR Inten    --    16.5366                 0.2812                53.8254

 - Thermochemistry -
 -------------------
 Temperature   298.150 Kelvin.  Pressure   1.00000 Atm.
 Atom     1 has atomic number  6 and mass  12.00000

 Molecular mass:   185.16539 amu.
 Principal axes and moments of inertia in atomic units:
                           1         2         3
     Eigenvalues --   929.844355450.925195993.97398
           X            0.99997   0.00691   0.00192
           Y           -0.00691   0.99997  -0.00395
           Z           -0.00195   0.00393   0.99999
 This molecule is an asymmetric top.
 Rotational symmetry number  1.
 Warning -- assumption of classical behavior for rotation
           may cause significant error
 Rotational temperatures (Kelvin)      0.09315     0.01589     0.01445
 Rotational constants (GHZ):           1.94091     0.33109     0.30109
 Zero-point vibrational energy     828439.5 (Joules/Mol)
                                  198.00180 (Kcal/Mol)
 Warning -- explicit consideration of  20 degrees of freedom as
           vibrations may cause significant error
 Vibrational temperatures:     25.27    59.86    94.42   127.32   146.03
          (Kelvin)            158.57   199.52   267.33   322.89   368.33
                              382.52   423.14   521.24   569.00   579.04
                              628.27   672.65   692.72   756.82   815.36
                              893.48   910.51  1092.59  1136.07  1158.57
                             1186.06  1238.79  1260.03  1305.85  1346.40
                             1367.77  1397.30  1451.75  1491.10  1499.08
                             1515.88  1528.15  1562.14  1581.75  1627.80
                             1659.94  1661.99  1702.50  1704.29  1704.43
                             1787.73  1832.25  1857.72  1869.53  1882.20
                             1891.22  1955.27  1969.15  1976.74  2010.76
                             2020.78  2027.44  2030.48  2073.71  2082.89
                             2106.75  2122.19  2162.87  2168.16  2169.89
                             2176.48  2182.77  2192.30  2195.70  2197.59
                             2200.48  2212.77  2254.91  2385.58  2544.86
                             4294.02  4308.06  4326.02  4387.84  4393.75
                             4395.93  4409.25  4417.63  4449.06  4452.65
                             4456.58  4465.63  4469.01  4469.73  4482.95
                             4494.53  4505.73  4562.60  4575.09  4618.87
                             5005.88

 Zero-point correction=                           0.315536 (Hartree/Particle)
 Thermal correction to Energy=                    0.329835
 Thermal correction to Enthalpy=                  0.330780
 Thermal correction to Gibbs Free Energy=         0.272789
 Sum of electronic and zero-point Energies=           -577.929025
 Sum of electronic and thermal Energies=              -577.914725
 Sum of electronic and thermal Enthalpies=            -577.913781
 Sum of electronic and thermal Free Energies=         -577.971771

                     E (Thermal)             CV                S
                      KCal/Mol        Cal/Mol-Kelvin    Cal/Mol-Kelvin
 Total                  206.975             53.260            122.051
 Electronic               0.000              0.000              0.000
 Translational            0.889              2.981             41.554
 Rotational               0.889              2.981             31.786
 Vibrational            205.197             47.298             48.711
 Vibration     1          0.593              1.986              6.892
 Vibration     2          0.594              1.981              5.181
 Vibration     3          0.597              1.971              4.280
 Vibration     4          0.601              1.957              3.693
 Vibration     5          0.604              1.948              3.425
 Vibration     6          0.606              1.941              3.265
 Vibration     7          0.614              1.915              2.822
 Vibration     8          0.632              1.859              2.269
 Vibration     9          0.649              1.804              1.923
 Vibration    10          0.666              1.753              1.689
 Vibration    11          0.672              1.736              1.623
 Vibration    12          0.689              1.685              1.450
 Vibration    13          0.736              1.550              1.112
 Vibration    14          0.762              1.480              0.979
 Vibration    15          0.768              1.465              0.954
 Vibration    16          0.797              1.390              0.837
 Vibration    17          0.825              1.322              0.745
 Vibration    18          0.838              1.291              0.706
 Vibration    19          0.881              1.192              0.596
 Vibration    20          0.923              1.103              0.511

 Normal termination of Gaussian 09 at Fri Feb 16 19:14:39 2018.
