 Gaussian 09, Revision C.01,
 Gaussian 09:  AM64L-G09RevC.01 23-Sep-2011

 ----------------------------------------------------------------------
 #HF/6-31G* Geom=AllCheck Guess=Read Pop=(MK,ReadRadii) Integral=(Grid=
 UltraFine) iop(6/33=2)
 ----------------------------------------------------------------------

 Structure from the checkpoint file:  frag13-conf1.chk
 -----------------------------
 Optimization for frag13-conf1
 -----------------------------
 Charge =  1 Multiplicity = 1

                         Standard orientation:
 ---------------------------------------------------------------------
 Center     Atomic      Atomic             Coordinates (Angstroms)
 Number     Number       Type             X           Y           Z
 ---------------------------------------------------------------------
      1          6           0        2.083766   -0.341980   -0.129851
      2          6           0       -4.031104    0.178235   -0.486748
      3          6           0       -3.048154    1.358444   -0.444241
      4          6           0       -3.293289   -1.169199   -0.475761
      5          6           0       -2.092376    1.257856    0.758527
      6          6           0       -2.334632   -1.279173    0.723964
      7          6           0       -1.365669   -0.091948    0.831702
      8          6           0        4.462951   -0.789046    0.003247
      9          6           0        3.677896    1.561786   -0.013756
     10          6           0        0.893527    0.656698   -0.186099
     11          7           0        3.329382    0.142533   -0.049585
     12          7           0       -0.329875   -0.203659   -0.289726
     13          8           0        1.791508   -1.545816   -0.159253
     14          1           0       -4.696953    0.233224    0.385300
     15          1           0       -4.670650    0.251969   -1.372604
     16          1           0       -2.479156    1.399849   -1.388097
     17          1           0       -3.587798    2.309689   -0.391008
     18          1           0       -4.006341   -1.999104   -0.437936
     19          1           0       -2.744035   -1.299672   -1.422095
     20          1           0       -1.376772    2.089945    0.765692
     21          1           0       -2.668809    1.350078    1.687202
     22          1           0       -2.917197   -1.288424    1.653426
     23          1           0       -1.776596   -2.224242    0.705590
     24          1           0       -0.771187   -0.170280    1.747693
     25          1           0        5.126907   -0.607428   -0.848217
     26          1           0        4.088391   -1.810025   -0.033509
     27          1           0        5.022825   -0.633382    0.931193
     28          1           0        4.237609    1.782496    0.901480
     29          1           0        2.792977    2.197845   -0.035844
     30          1           0        4.306867    1.813247   -0.874711
     31          1           0        0.827539    1.260968    0.720693
     32          1           0        0.948133    1.324136   -1.048030
     33          1           0        0.094198   -1.170659   -0.292762
     34          1           0       -0.796071   -0.065848   -1.190162
 ---------------------------------------------------------------------

 SCF Done:  E(RHF) =  -574.482895392     A.U. after   13 cycles

 The electronic state is 1-A.
 Alpha  occ. eigenvalues --  -20.68723 -15.83572 -15.74699 -11.51994 -11.46665
 Alpha  occ. eigenvalues --  -11.44422 -11.40410 -11.37836 -11.37632 -11.37128
 Alpha  occ. eigenvalues --  -11.35908 -11.35474 -11.34451  -1.54486  -1.46010
 Alpha  occ. eigenvalues --   -1.39588  -1.25943  -1.17497  -1.15109  -1.13646
 Alpha  occ. eigenvalues --   -1.10645  -1.06551  -0.99203  -0.98406  -0.93813
 Alpha  occ. eigenvalues --   -0.90366  -0.89000  -0.84457  -0.82853  -0.81136
 Alpha  occ. eigenvalues --   -0.78802  -0.78555  -0.77487  -0.74697  -0.74527
 Alpha  occ. eigenvalues --   -0.73125  -0.71321  -0.69082  -0.68852  -0.67706
 Alpha  occ. eigenvalues --   -0.67263  -0.66940  -0.66522  -0.66150  -0.65951
 Alpha  occ. eigenvalues --   -0.62717  -0.59180  -0.58895  -0.57646  -0.57514
 Alpha  occ. eigenvalues --   -0.51753
 Alpha virt. eigenvalues --    0.02453   0.03861   0.07814   0.08356   0.10788
 Alpha virt. eigenvalues --    0.12092   0.13246   0.14076   0.14813   0.15152
 Alpha virt. eigenvalues --    0.16208   0.17608   0.17941   0.18620   0.18988

 Mulliken atomic charges:
              1
     1  C    0.808945
     2  C   -0.320436
     3  C   -0.342132
     4  C   -0.343020
     5  C   -0.340431
     6  C   -0.350724
     7  C   -0.038065
     8  C   -0.315223
     9  C   -0.307813
    10  C   -0.256031
    11  N   -0.656995
    12  N   -0.823518
    13  O   -0.660538
    14  H    0.184668
    15  H    0.205470
    16  H    0.140546
    17  H    0.217964
    18  H    0.219476
    19  H    0.148754
    20  H    0.187021
    21  H    0.219107
    22  H    0.217137
    23  H    0.207432
    24  H    0.236389
    25  H    0.202588
    26  H    0.252921
    27  H    0.202252
    28  H    0.218131
    29  H    0.183738
    30  H    0.217943
    31  H    0.261682
    32  H    0.261635
    33  H    0.510275
    34  H    0.450851
 Sum of Mulliken atomic charges =   1.00000

 Dipole moment (field-independent basis, Debye):
    X=              0.8903    Y=              3.2632    Z=             -0.1827  Tot=              3.3874
 Quadrupole moment (field-independent basis, Debye-Ang):
   XX=            -39.2154   YY=            -76.5721   ZZ=            -75.2066
   XY=              7.7428   XZ=             -0.7999   YZ=             -0.5062

 Normal termination of Gaussian 09 at Sat Feb 17 20:57:58 2018.
