 Gaussian 09, Revision C.01,
 Gaussian 09:  AM64L-G09RevC.01 23-Sep-2011

 ----------------------------------------------------------------------
 #HF/6-31G* Geom=AllCheck Guess=Read Pop=(MK,ReadRadii) Integral=(Grid=
 UltraFine) iop(6/33=2)
 ----------------------------------------------------------------------

 Structure from the checkpoint file:  frag5-conf1.chk
 ----------------------------
 Optimization for frag5-conf1
 ----------------------------
 Charge =  0 Multiplicity = 1

                         Standard orientation:
 ---------------------------------------------------------------------
 Center     Atomic      Atomic             Coordinates (Angstroms)
 Number     Number       Type             X           Y           Z
 ---------------------------------------------------------------------
      1          6           0        1.063655    2.012935   -0.142887
      2          6           0       -0.052178    1.303531    0.295870
      3          6           0        2.290398    1.370327   -0.331288
      4          6           0        1.267544   -0.720236    0.369174
      5          6           0        0.042835   -0.071985    0.553779
      6          6           0        2.375015    0.005655   -0.070036
      7          6           0       -3.265583   -0.143254   -0.108471
      8          6           0       -4.204234   -0.396371   -1.278602
      9          6           0       -1.176804   -0.849066    1.018149
     10          7           0       -2.202591   -1.000970   -0.009992
     11          8           0       -3.461144    0.762833    0.694333
     12         17           0        3.910588   -0.827167   -0.298316
     13          1           0        0.986296    3.079227   -0.337020
     14          1           0       -1.003591    1.805467    0.446149
     15          1           0        3.163916    1.916804   -0.670330
     16          1           0        1.365647   -1.783330    0.568916
     17          1           0       -5.223111   -0.496640   -0.893531
     18          1           0       -4.189846    0.476694   -1.939029
     19          1           0       -3.954395   -1.287714   -1.862569
     20          1           0       -0.880739   -1.845539    1.363586
     21          1           0       -1.661729   -0.330984    1.849335
     22          1           0       -2.019056   -1.637230   -0.772979
 ---------------------------------------------------------------------

 SCF Done:  E(RHF) =  -935.451360057     A.U. after   14 cycles

 The electronic state is 1-A.
 Alpha  occ. eigenvalues -- -104.82620 -20.52737 -15.59775 -11.36135 -11.30772
 Alpha  occ. eigenvalues --  -11.27934 -11.25648 -11.25346 -11.25263 -11.25029
 Alpha  occ. eigenvalues --  -11.24454 -11.24214 -10.55925  -8.02861  -8.02533
 Alpha  occ. eigenvalues --   -8.02529  -1.37915  -1.23607  -1.18526  -1.11719
 Alpha  occ. eigenvalues --   -1.05192  -1.01173  -0.99464  -0.93388  -0.83594
 Alpha  occ. eigenvalues --   -0.80768  -0.79098  -0.70413  -0.69286  -0.65822
 Alpha  occ. eigenvalues --   -0.65349  -0.63948  -0.61709  -0.59262  -0.58322
 Alpha  occ. eigenvalues --   -0.58119  -0.56576  -0.55128  -0.53486  -0.52911
 Alpha  occ. eigenvalues --   -0.50345  -0.50051  -0.46276  -0.45301  -0.42481
 Alpha  occ. eigenvalues --   -0.39608  -0.34552  -0.33105
 Alpha virt. eigenvalues --    0.12242   0.12871   0.18543   0.19876   0.21166
 Alpha virt. eigenvalues --    0.25559   0.26803   0.27473   0.30390   0.30826
 Alpha virt. eigenvalues --    0.31320   0.32318   0.33239   0.34026   0.34262

 Mulliken atomic charges:
              1
     1  C   -0.194551
     2  C   -0.224423
     3  C   -0.185588
     4  C   -0.212440
     5  C    0.029828
     6  C   -0.129425
     7  C    0.763528
     8  C   -0.576094
     9  C   -0.166213
    10  N   -0.790895
    11  O   -0.631621
    12  Cl  -0.012488
    13  H    0.215546
    14  H    0.254311
    15  H    0.230680
    16  H    0.224293
    17  H    0.212601
    18  H    0.207943
    19  H    0.169456
    20  H    0.189988
    21  H    0.240115
    22  H    0.385451
 Sum of Mulliken atomic charges =   0.00000

 Dipole moment (field-independent basis, Debye):
    X=             -0.9521    Y=             -1.6752    Z=             -2.1111  Tot=              2.8582
 Quadrupole moment (field-independent basis, Debye-Ang):
   XX=            -87.1712   YY=            -71.6806   ZZ=            -78.4121
   XY=             11.1859   XZ=              8.4182   YZ=             -2.3488

 1\1\GINC-NODE016\SP\RHF\6-31G(d)\C9H10Cl1N1O1\WULSDORT\17-Feb-2018\0\\
 #HF/6-31G* Geom=AllCheck Guess=Read Pop=(MK,ReadRadii) Integral=(Grid=
 UltraFine) iop(6/33=2)\\Optimization for frag5-conf1\\0,1\C,0,1.782402
 1785,-1.854175473,0.5230459507\C,0,0.7662313219,-1.2765260683,1.281044
 3914\C,0,3.1250895483,-1.5970940425,0.8136305177\C,0,2.421776386,-0.16
 37383119,2.6461622545\C,0,1.0807227144,-0.426466309,2.3515969947\C,0,3
 .426704973,-0.7500531803,1.8763119428\C,0,-1.9084331828,-1.3601939967,
 3.6095244556\C,0,-2.4886263392,-2.3950944545,4.5617319331\C,0,-0.02623

 Normal termination of Gaussian 09 at Sat Feb 17 20:56:44 2018.
