 Gaussian 09, Revision C.01,
 Gaussian 09:  AM64L-G09RevC.01 23-Sep-2011

 ---------------------------------------------------------
 #B3LYP/6-31G* Integral=(Grid=UltraFine) freq Opt pop=none
 ---------------------------------------------------------

 99/9=1/99;
 ----------------------------
 Optimization for frag5-conf1
 ----------------------------
 Charge =  0 Multiplicity = 1

 SCF Done:  E(RB3LYP) =  -939.168626462     A.U. after   14 cycles
 SCF Done:  E(RB3LYP) =  -939.171448354     A.U. after   13 cycles
 SCF Done:  E(RB3LYP) =  -939.171897303     A.U. after   12 cycles
 SCF Done:  E(RB3LYP) =  -939.172111646     A.U. after   13 cycles
 SCF Done:  E(RB3LYP) =  -939.172164807     A.U. after   11 cycles
 SCF Done:  E(RB3LYP) =  -939.172238014     A.U. after   11 cycles
 SCF Done:  E(RB3LYP) =  -939.172272071     A.U. after   11 cycles
 SCF Done:  E(RB3LYP) =  -939.172285711     A.U. after   10 cycles
 SCF Done:  E(RB3LYP) =  -939.172319624     A.U. after   11 cycles
 SCF Done:  E(RB3LYP) =  -939.172353639     A.U. after   11 cycles
 SCF Done:  E(RB3LYP) =  -939.172398200     A.U. after   11 cycles
 SCF Done:  E(RB3LYP) =  -939.172440270     A.U. after   11 cycles
 SCF Done:  E(RB3LYP) =  -939.172461249     A.U. after   11 cycles
 SCF Done:  E(RB3LYP) =  -939.172463071     A.U. after   10 cycles
 SCF Done:  E(RB3LYP) =  -939.172466440     A.U. after   10 cycles
 SCF Done:  E(RB3LYP) =  -939.172466583     A.U. after    8 cycles
 SCF Done:  E(RB3LYP) =  -939.172466616     A.U. after    7 cycles
 SCF Done:  E(RB3LYP) =  -939.172466633     A.U. after    7 cycles
 SCF Done:  E(RB3LYP) =  -939.172466638     A.U. after    7 cycles
 Optimization completed.
    -- Stationary point found.
 Normal termination of Gaussian 09 at Fri Feb 16 17:24:28 2018.

 --------------------------------------------------------------------
 #N Geom=AllCheck Guess=TCheck SCRF=Check GenChk RB3LYP/6-31G(d) Freq
 --------------------------------------------------------------------

 Structure from the checkpoint file:  frag5-conf1.chk
 ----------------------------
 Optimization for frag5-conf1
 ----------------------------
 Charge =  0 Multiplicity = 1

                         Standard orientation:
 ---------------------------------------------------------------------
 Center     Atomic      Atomic             Coordinates (Angstroms)
 Number     Number       Type             X           Y           Z
 ---------------------------------------------------------------------
      1          6           0        1.063655    2.012935   -0.142887
      2          6           0       -0.052178    1.303531    0.295870
      3          6           0        2.290398    1.370327   -0.331288
      4          6           0        1.267544   -0.720236    0.369174
      5          6           0        0.042835   -0.071985    0.553779
      6          6           0        2.375015    0.005655   -0.070036
      7          6           0       -3.265583   -0.143254   -0.108471
      8          6           0       -4.204234   -0.396371   -1.278602
      9          6           0       -1.176804   -0.849066    1.018149
     10          7           0       -2.202591   -1.000970   -0.009992
     11          8           0       -3.461144    0.762833    0.694333
     12         17           0        3.910588   -0.827167   -0.298316
     13          1           0        0.986296    3.079227   -0.337020
     14          1           0       -1.003591    1.805467    0.446149
     15          1           0        3.163916    1.916804   -0.670330
     16          1           0        1.365647   -1.783330    0.568916
     17          1           0       -5.223111   -0.496640   -0.893531
     18          1           0       -4.189846    0.476694   -1.939029
     19          1           0       -3.954395   -1.287714   -1.862569
     20          1           0       -0.880739   -1.845539    1.363586
     21          1           0       -1.661729   -0.330984    1.849335
     22          1           0       -2.019056   -1.637230   -0.772979
 ---------------------------------------------------------------------

 SCF Done:  E(RB3LYP) =  -939.172466638     A.U. after    1 cycles

 Isotropic polarizability for W=    0.000000      109.51 Bohr**3.
 End of Minotr Frequency-dependent properties file   721 does not exist.

                     1                      2                      3
                     A                      A                      A
 Frequencies --    23.4205                45.0368                57.0528
 Red. masses --     5.0680                 1.3943                 5.4097
 Frc consts  --     0.0016                 0.0017                 0.0104
 IR Inten    --     2.3336                 0.6967                15.6287

                     4                      5                      6
                     A                      A                      A
 Frequencies --    70.8877               165.3507               175.7790
 Red. masses --     2.1893                 5.9966                 7.0577
 Frc consts  --     0.0065                 0.0966                 0.1285
 IR Inten    --     0.6069                 2.6763                 3.1310

                     7                      8                      9
                     A                      A                      A
 Frequencies --   199.4189               283.4227               305.4785
 Red. masses --     4.8821                 3.8584                 3.6063
 Frc consts  --     0.1144                 0.1826                 0.1983
 IR Inten    --     0.2566                 4.0526                 0.8833

                    10                     11                     12
                     A                      A                      A
 Frequencies --   374.4012               415.8396               438.4975
 Red. masses --     2.8391                 9.1290                 2.8483
 Frc consts  --     0.2345                 0.9301                 0.3227
 IR Inten    --     2.4098                 7.0742                 5.2149

                    13                     14                     15
                     A                      A                      A
 Frequencies --   449.1485               470.3853               522.7124
 Red. masses --     1.3178                 2.9302                 4.7974
 Frc consts  --     0.1566                 0.3820                 0.7723
 IR Inten    --    95.7692                20.4892                 8.1092

                    16                     17                     18
                     A                      A                      A
 Frequencies --   612.4828               618.8035               652.8992
 Red. masses --     3.9271                 3.1337                 3.4266
 Frc consts  --     0.8680                 0.7070                 0.8606
 IR Inten    --     8.3995                 0.2032                 0.7383

                    19                     20                     21
                     A                      A                      A
 Frequencies --   694.9987               726.8030               808.8083
 Red. masses --     5.3605                 2.6581                 1.4404
 Frc consts  --     1.5255                 0.8273                 0.5552
 IR Inten    --    14.5543                23.7304                29.7642

                    22                     23                     24
                     A                      A                      A
 Frequencies --   854.6852               874.1090               899.3650
 Red. masses --     2.7155                 3.4580                 1.5847
 Frc consts  --     1.1687                 1.5567                 0.7552
 IR Inten    --     3.9557                26.8999                10.1125

                    25                     26                     27
                     A                      A                      A
 Frequencies --   931.0194               994.7493              1002.1203
 Red. masses --     1.3539                 1.3441                 1.5906
 Frc consts  --     0.6914                 0.7836                 0.9411
 IR Inten    --     0.6607                 1.3425                 3.6386

                    28                     29                     30
                     A                      A                      A
 Frequencies --  1014.1803              1041.7298              1068.0539
 Red. masses --     5.8316                 2.5776                 1.7049
 Frc consts  --     3.5340                 1.6481                 1.1459
 IR Inten    --     5.4699                14.4333                 7.3365

                    31                     32                     33
                     A                      A                      A
 Frequencies --  1102.4295              1109.6716              1130.5840
 Red. masses --     3.3322                 2.1598                 1.5583
 Frc consts  --     2.3860                 1.5669                 1.1735
 IR Inten    --     5.5389                25.7708                 4.8242

                    34                     35                     36
                     A                      A                      A
 Frequencies --  1204.7619              1231.0657              1266.0824
 Red. masses --     1.1362                 2.7770                 1.4879
 Frc consts  --     0.9716                 2.4796                 1.4052
 IR Inten    --     0.2366                19.1054                27.1031

                    37                     38                     39
                     A                      A                      A
 Frequencies --  1290.4603              1338.9465              1357.5017
 Red. masses --     1.8852                 1.3826                 3.2259
 Frc consts  --     1.8497                 1.4604                 3.5025
 IR Inten    --   138.3083                16.6302                 3.1626

                    40                     41                     42
                     A                      A                      A
 Frequencies --  1399.5653              1426.4711              1476.7457
 Red. masses --     1.3059                 1.2595                 2.6215
 Frc consts  --     1.5072                 1.5100                 3.3683
 IR Inten    --    14.1742                23.0144                37.8363

                    43                     44                     45
                     A                      A                      A
 Frequencies --  1499.5303              1501.3712              1515.5124
 Red. masses --     1.0935                 1.0673                 1.0701
 Frc consts  --     1.4487                 1.4174                 1.4481
 IR Inten    --    19.5280                 1.8842                15.7846

                    46                     47                     48
                     A                      A                      A
 Frequencies --  1526.2660              1556.1896              1631.1932
 Red. masses --     2.2383                 1.8771                 5.8429
 Frc consts  --     3.0721                 2.6783                 9.1598
 IR Inten    --    18.5305               206.7991                31.9180

                    49                     50                     51
                     A                      A                      A
 Frequencies --  1655.2084              1777.2972              3064.7209
 Red. masses --     5.8080                 8.9754                 1.0357
 Frc consts  --     9.3753                16.7041                 5.7314
 IR Inten    --    20.9012               202.7277                 8.0822

                    52                     53                     54
                     A                      A                      A
 Frequencies --  3072.3607              3135.7651              3137.4482
 Red. masses --     1.0648                 1.1002                 1.1026
 Frc consts  --     5.9219                 6.3742                 6.3949
 IR Inten    --    30.6347                 0.8950                14.9021

                    55                     56                     57
                     A                      A                      A
 Frequencies --  3145.8293              3194.8908              3203.5401
 Red. masses --     1.1021                 1.0877                 1.0910
 Frc consts  --     6.4262                 6.5413                 6.5968
 IR Inten    --    10.4833                 8.5361                 3.5943

                    58                     59                     60
                     A                      A                      A
 Frequencies --  3214.1847              3225.4703              3623.2531
 Red. masses --     1.0933                 1.0946                 1.0777
 Frc consts  --     6.6545                 6.7093                 8.3356
 IR Inten    --     1.8991                 5.2766                15.6084

 - Thermochemistry -
 -------------------
 Temperature   298.150 Kelvin.  Pressure   1.00000 Atm.
 Atom     1 has atomic number  6 and mass  12.00000

 Molecular mass:   183.04509 amu.
 Principal axes and moments of inertia in atomic units:
                           1         2         3
     Eigenvalues --   891.391545220.483085641.63393
           X            0.99980   0.01591   0.01211
           Y           -0.01566   0.99966  -0.02091
           Z           -0.01243   0.02072   0.99971
 This molecule is an asymmetric top.
 Rotational symmetry number  1.
 Warning -- assumption of classical behavior for rotation
           may cause significant error
 Rotational temperatures (Kelvin)      0.09717     0.01659     0.01535
 Rotational constants (GHZ):           2.02463     0.34570     0.31990
 Zero-point vibrational energy     459401.6 (Joules/Mol)
                                  109.79963 (Kcal/Mol)
 Warning -- explicit consideration of  17 degrees of freedom as
           vibrations may cause significant error
 Vibrational temperatures:     33.70    64.80    82.09   101.99   237.90
          (Kelvin)            252.91   286.92   407.78   439.51   538.68
                              598.30   630.90   646.22   676.78   752.07
                              881.22   890.32   939.38   999.95  1045.71
                             1163.69  1229.70  1257.65  1293.98  1339.53
                             1431.22  1441.83  1459.18  1498.82  1536.69
                             1586.15  1596.57  1626.66  1733.38  1771.23
                             1821.61  1856.68  1926.44  1953.14  2013.66
                             2052.37  2124.71  2157.49  2160.14  2180.48
                             2195.95  2239.01  2346.92  2381.47  2557.13
                             4409.44  4420.44  4511.66  4514.08  4526.14
                             4596.73  4609.17  4624.49  4640.73  5213.05

 Zero-point correction=                           0.174977 (Hartree/Particle)
 Thermal correction to Energy=                    0.186732
 Thermal correction to Enthalpy=                  0.187676
 Thermal correction to Gibbs Free Energy=         0.134690
 Sum of electronic and zero-point Energies=           -938.997490
 Sum of electronic and thermal Energies=              -938.985735
 Sum of electronic and thermal Enthalpies=            -938.984791
 Sum of electronic and thermal Free Energies=         -939.037776

                     E (Thermal)             CV                S
                      KCal/Mol        Cal/Mol-Kelvin    Cal/Mol-Kelvin
 Total                  117.176             42.571            111.517
 Electronic               0.000              0.000              0.000
 Translational            0.889              2.981             41.520
 Rotational               0.889              2.981             31.641
 Vibrational            115.398             36.610             38.357
 Vibration     1          0.593              1.985              6.321
 Vibration     2          0.595              1.979              5.024
 Vibration     3          0.596              1.975              4.557
 Vibration     4          0.598              1.968              4.129
 Vibration     5          0.624              1.885              2.488
 Vibration     6          0.628              1.872              2.373
 Vibration     7          0.638              1.841              2.138
 Vibration     8          0.682              1.704              1.513
 Vibration     9          0.696              1.663              1.387
 Vibration    10          0.746              1.525              1.062
 Vibration    11          0.779              1.436              0.906
 Vibration    12          0.799              1.386              0.831
 Vibration    13          0.808              1.363              0.798
 Vibration    14          0.827              1.316              0.736
 Vibration    15          0.878              1.200              0.604
 Vibration    16          0.972              1.005              0.429
 Vibration    17          0.979              0.992              0.418

 Optimization completed.
    -- Stationary point found.
 Normal termination of Gaussian 09 at Fri Feb 16 17:39:01 2018.
