 Gaussian 09, Revision C.01,
 Gaussian 09:  AM64L-G09RevC.01 23-Sep-2011

 --------------------------------------------------------------
 #B3LYP/6-31G* Integral=(Grid=UltraFine) freq Opt pop=none SCRF
 --------------------------------------------------------------

 99/9=1/99;
 ----------------------------
 Optimization for frag2-conf2
 ----------------------------
 Charge =  0 Multiplicity = 1

 SCF Done:  E(RB3LYP) =  -845.026743036     A.U. after   13 cycles
 SCF Done:  E(RB3LYP) =  -845.034363081     A.U. after   12 cycles
 SCF Done:  E(RB3LYP) =  -845.023387028     A.U. after   12 cycles
 SCF Done:  E(RB3LYP) =  -845.034969310     A.U. after   11 cycles
 SCF Done:  E(RB3LYP) =  -845.036013987     A.U. after   12 cycles
 SCF Done:  E(RB3LYP) =  -845.037809856     A.U. after   12 cycles
 SCF Done:  E(RB3LYP) =  -845.038048692     A.U. after   11 cycles
 SCF Done:  E(RB3LYP) =  -845.039856119     A.U. after   11 cycles
 SCF Done:  E(RB3LYP) =  -845.039490617     A.U. after   12 cycles
 SCF Done:  E(RB3LYP) =  -845.040211285     A.U. after   11 cycles
 SCF Done:  E(RB3LYP) =  -845.041230603     A.U. after    9 cycles
 SCF Done:  E(RB3LYP) =  -845.041240467     A.U. after    9 cycles
 SCF Done:  E(RB3LYP) =  -845.041246698     A.U. after    8 cycles
 SCF Done:  E(RB3LYP) =  -845.041246414     A.U. after    8 cycles
 SCF Done:  E(RB3LYP) =  -845.041246745     A.U. after    8 cycles
 SCF Done:  E(RB3LYP) =  -845.041250789     A.U. after    8 cycles
 SCF Done:  E(RB3LYP) =  -845.041253456     A.U. after    8 cycles
 SCF Done:  E(RB3LYP) =  -845.041253547     A.U. after    7 cycles
 SCF Done:  E(RB3LYP) =  -845.041253401     A.U. after    7 cycles
 Optimization completed.
    -- Stationary point found.
 Normal termination of Gaussian 09 at Sat Feb 17 20:51:34 2018.

 --------------------------------------------------------------------
 #N Geom=AllCheck Guess=TCheck SCRF=Check GenChk RB3LYP/6-31G(d) Freq
 --------------------------------------------------------------------

 Structure from the checkpoint file:  frag2-conf2.chk
 ----------------------------
 Optimization for frag2-conf2
 ----------------------------
 Charge =  0 Multiplicity = 1

                         Standard orientation:
 ---------------------------------------------------------------------
 Center     Atomic      Atomic             Coordinates (Angstroms)
 Number     Number       Type             X           Y           Z
 ---------------------------------------------------------------------
      1          6           0        0.307619    1.604298   -0.364488
      2          6           0        3.248494   -1.783919   -0.254227
      3          6           0       -3.648687   -1.567962   -0.902498
      4          6           0       -3.058056   -0.149743   -0.861836
      5          6           0       -2.655179   -2.607456   -0.360608
      6          6           0       -2.560526    0.209773    0.548226
      7          6           0       -2.162091   -2.230337    1.046695
      8          6           0       -1.548232   -0.812575    1.114951
      9          6           0       -0.176394    3.908995   -0.956153
     10          6           0        0.258171    3.416740    1.404442
     11          6           0        2.703591   -0.375236   -0.649818
     12          6           0       -0.156305   -0.790115    0.441059
     13          6           0        0.633661    0.508793    0.675939
     14          7           0        0.159695    2.892682    0.042413
     15          7           0        2.123688    0.225397    0.607036
     16          8           0        3.782582   -2.443899   -1.158644
     17          8           0        0.216868    1.265672   -1.550798
     18          8           0        3.072133   -2.079381    0.970112
     19          1           0       -4.563045   -1.593616   -0.290909
     20          1           0       -3.949279   -1.826053   -1.926083
     21          1           0       -2.229247   -0.071756   -1.577732
     22          1           0       -3.811363    0.581913   -1.181295
     23          1           0       -3.122625   -3.600045   -0.332352
     24          1           0       -1.801685   -2.689905   -1.048094
     25          1           0       -2.141723    1.223754    0.555948
     26          1           0       -3.422685    0.237010    1.229890
     27          1           0       -3.015278   -2.266515    1.738912
     28          1           0       -1.436200   -2.970730    1.407777
     29          1           0       -1.388560   -0.573515    2.176542
     30          1           0       -1.093425    4.428310   -0.656723
     31          1           0       -0.322772    3.427779   -1.920295
     32          1           0        0.633242    4.643923   -1.030092
     33          1           0        0.915798    4.292073    1.400919
     34          1           0        0.671904    2.692374    2.101457
     35          1           0       -0.729585    3.727113    1.764791
     36          1           0        1.934259   -0.433278   -1.417132
     37          1           0        3.507043    0.267524   -1.011599
     38          1           0        0.433894   -1.613328    0.860524
     39          1           0       -0.233686   -0.966109   -0.634468
     40          1           0        0.471946    0.837591    1.701648
     41          1           0        2.371906   -0.565268    1.280804
     42          1           0        2.648421    1.057523    0.885958
 ---------------------------------------------------------------------

 SCF Done:  E(RB3LYP) =  -845.041253401     A.U. after    1 cycles

 Isotropic polarizability for W=    0.000000      199.01 Bohr**3.
 End of Minotr Frequency-dependent properties file   721 does not exist.

                     1                      2                      3
                     A                      A                      A
 Frequencies --    25.7406                38.0433                44.3750
 Red. masses --     3.8532                 2.9084                 4.8219
 Frc consts  --     0.0015                 0.0025                 0.0056
 IR Inten    --     3.1706                 1.4445                16.7706

                     4                      5                      6
                     A                      A                      A
 Frequencies --    56.6740                62.5517                67.7324
 Red. masses --     2.7934                 2.9986                 2.7210
 Frc consts  --     0.0053                 0.0069                 0.0074
 IR Inten    --     2.2924                 8.0214                 2.4826

                     7                      8                      9
                     A                      A                      A
 Frequencies --    86.3143               101.7387               104.9397
 Red. masses --     1.5472                 4.2291                 1.7100
 Frc consts  --     0.0068                 0.0258                 0.0111
 IR Inten    --     1.2825                 1.1140                 5.7171

                    10                     11                     12
                     A                      A                      A
 Frequencies --   130.2026               164.0585               178.6058
 Red. masses --     3.2747                 3.3028                 2.9047
 Frc consts  --     0.0327                 0.0524                 0.0546
 IR Inten    --     9.7979                 4.8800                 3.6269

                    13                     14                     15
                     A                      A                      A
 Frequencies --   204.3888               233.7009               265.7515
 Red. masses --     5.2399                 3.0522                 2.7430
 Frc consts  --     0.1290                 0.0982                 0.1141
 IR Inten    --     8.6578                 5.4492                 7.3328

                    16                     17                     18
                     A                      A                      A
 Frequencies --   276.0042               303.5808               310.1686
 Red. masses --     2.4996                 2.1314                 2.4677
 Frc consts  --     0.1122                 0.1157                 0.1399
 IR Inten    --    10.5836                 2.8094                16.2542

                    19                     20                     21
                     A                      A                      A
 Frequencies --   370.6284               391.7917               406.0219
 Red. masses --     2.2591                 2.8259                 2.8787
 Frc consts  --     0.1828                 0.2556                 0.2796
 IR Inten    --    37.1740                11.5816                60.1522

                    22                     23                     24
                     A                      A                      A
 Frequencies --   420.9779               445.9739               476.8776
 Red. masses --     2.5666                 2.9730                 2.0274
 Frc consts  --     0.2680                 0.3484                 0.2716
 IR Inten    --     0.6926                 4.3987                 1.1840

                    25                     26                     27
                     A                      A                      A
 Frequencies --   483.9057               500.9562               537.2521
 Red. masses --     2.8885                 4.8982                 2.4449
 Frc consts  --     0.3985                 0.7243                 0.4158
 IR Inten    --     9.3341                67.3424                 2.0913

                    28                     29                     30
                     A                      A                      A
 Frequencies --   567.0457               610.5859               645.1182
 Red. masses --     2.6634                 2.6376                 3.0153
 Frc consts  --     0.5046                 0.5794                 0.7394
 IR Inten    --     4.3921                12.5019                10.3523

                    31                     32                     33
                     A                      A                      A
 Frequencies --   687.3373               738.1178               785.1362
 Red. masses --     6.3803                 4.7316                 3.5281
 Frc consts  --     1.7760                 1.5188                 1.2814
 IR Inten    --    27.7384                 2.7700                 0.6824

                    34                     35                     36
                     A                      A                      A
 Frequencies --   791.2420               800.3256               840.6189
 Red. masses --     2.8792                 1.5304                 2.3115
 Frc consts  --     1.0620                 0.5776                 0.9624
 IR Inten    --    21.0942                 1.2749                 2.8465

                    37                     38                     39
                     A                      A                      A
 Frequencies --   859.9471               862.7670               871.8468
 Red. masses --     1.6993                 3.1785                 3.3679
 Frc consts  --     0.7404                 1.3940                 1.5083
 IR Inten    --    19.0660                65.4811                26.3339

                    40                     41                     42
                     A                      A                      A
 Frequencies --   896.9349               930.1152               954.4333
 Red. masses --     3.4104                 2.0206                 1.5364
 Frc consts  --     1.6165                 1.0299                 0.8246
 IR Inten    --     8.0925                 1.1351                 2.9675

                    43                     44                     45
                     A                      A                      A
 Frequencies --   958.5428               986.2531              1005.9679
 Red. masses --     2.5686                 2.0958                 2.2519
 Frc consts  --     1.3905                 1.2011                 1.3427
 IR Inten    --     1.5790                 4.5985                29.5198

                    46                     47                     48
                     A                      A                      A
 Frequencies --  1013.4073              1024.4276              1045.6703
 Red. masses --     2.2678                 3.2952                 2.2085
 Frc consts  --     1.3722                 2.0375                 1.4228
 IR Inten    --     5.4734                32.2433                 0.6176

                    49                     50                     51
                     A                      A                      A
 Frequencies --  1050.3897              1064.4913              1078.2263
 Red. masses --     1.9518                 1.7413                 1.4570
 Frc consts  --     1.2688                 1.1626                 0.9980
 IR Inten    --     5.4118                25.8389                 7.8598

                    52                     53                     54
                     A                      A                      A
 Frequencies --  1098.9467              1103.5544              1133.7379
 Red. masses --     1.9825                 1.9147                 1.2273
 Frc consts  --     1.4106                 1.3738                 0.9294
 IR Inten    --    30.7006                 2.8608                 3.8963

                    55                     56                     57
                     A                      A                      A
 Frequencies --  1140.4263              1153.9786              1168.4991
 Red. masses --     1.0739                 1.6154                 1.5440
 Frc consts  --     0.8229                 1.2674                 1.2421
 IR Inten    --     0.2446               108.1534                45.0343

                    58                     59                     60
                     A                      A                      A
 Frequencies --  1177.3962              1185.1240              1231.7145
 Red. masses --     1.8423                 1.4376                 1.2501
 Frc consts  --     1.5047                 1.1896                 1.1175
 IR Inten    --    29.6293                17.0849                48.8045

                    61                     62                     63
                     A                      A                      A
 Frequencies --  1244.8727              1268.5018              1287.3174
 Red. masses --     1.3037                 4.0642                 1.2607
 Frc consts  --     1.1904                 3.8531                 1.2310
 IR Inten    --    59.0825                70.4023                68.2852

                    64                     65                     66
                     A                      A                      A
 Frequencies --  1291.2883              1300.8893              1308.8577
 Red. masses --     1.2740                 1.2541                 1.2378
 Frc consts  --     1.2516                 1.2504                 1.2494
 IR Inten    --     3.1078                 0.8604                 1.0052

                    67                     68                     69
                     A                      A                      A
 Frequencies --  1323.1000              1354.5823              1361.3701
 Red. masses --     1.2514                 1.4440                 3.6319
 Frc consts  --     1.2907                 1.5611                 3.9659
 IR Inten    --     3.2055                78.7644               200.5599

                    70                     71                     72
                     A                      A                      A
 Frequencies --  1364.9920              1369.3134              1384.5679
 Red. masses --     1.4048                 1.3185                 1.4602
 Frc consts  --     1.5421                 1.4566                 1.6493
 IR Inten    --    35.6066                 2.8974                81.8961

                    73                     74                     75
                     A                      A                      A
 Frequencies --  1395.4126              1397.2938              1404.3034
 Red. masses --     1.4289                 1.4262                 1.4279
 Frc consts  --     1.6393                 1.6406                 1.6591
 IR Inten    --     3.4418                13.1693                26.8255

                    76                     77                     78
                     A                      A                      A
 Frequencies --  1409.2255              1418.1406              1425.0116
 Red. masses --     1.4506                 1.4874                 1.4162
 Frc consts  --     1.6973                 1.7624                 1.6943
 IR Inten    --    33.5782                 9.1535                14.3476

                    79                     80                     81
                     A                      A                      A
 Frequencies --  1448.7786              1458.0501              1465.5669
 Red. masses --     1.2237                 1.3795                 1.6737
 Frc consts  --     1.5133                 1.7279                 2.1181
 IR Inten    --    70.6209               106.2119               203.0112

                    82                     83                     84
                     A                      A                      A
 Frequencies --  1496.6114              1504.6442              1506.6933
 Red. masses --     1.1676                 1.0744                 1.0431
 Frc consts  --     1.5409                 1.4331                 1.3952
 IR Inten    --    17.1059                11.1745                 9.9337

                    85                     86                     87
                     A                      A                      A
 Frequencies --  1507.6334              1510.4799              1513.4480
 Red. masses --     1.0868                 1.0890                 1.0904
 Frc consts  --     1.4554                 1.4639                 1.4715
 IR Inten    --     4.2178                 1.7830                23.1851

                    88                     89                     90
                     A                      A                      A
 Frequencies --  1519.4058              1521.6720              1523.9409
 Red. masses --     1.0919                 1.0831                 1.0628
 Frc consts  --     1.4851                 1.4776                 1.4543
 IR Inten    --     8.9651                23.4893                10.6073

                    91                     92                     93
                     A                      A                      A
 Frequencies --  1524.4349              1533.9902              1555.8243
 Red. masses --     1.0713                 1.0966                 1.3719
 Frc consts  --     1.4669                 1.5204                 1.9565
 IR Inten    --    27.7751                 5.1462                69.0802

                    94                     95                     96
                     A                      A                      A
 Frequencies --  1661.2501              1708.0114              1767.6793
 Red. masses --     1.0966                 7.8808                 6.8344
 Frc consts  --     1.7831                13.5456                12.5823
 IR Inten    --    78.5950               562.9946               492.5215

                    97                     98                     99
                     A                      A                      A
 Frequencies --  2800.9345              3011.7338              3017.9735
 Red. masses --     1.0747                 1.0795                 1.0664
 Frc consts  --     4.9677                 5.7692                 5.7226
 IR Inten    --   773.4134                28.0307                44.0283

                   100                    101                    102
                     A                      A                      A
 Frequencies --  3025.6663              3030.3284              3034.8514
 Red. masses --     1.0644                 1.0630                 1.0697
 Frc consts  --     5.7410                 5.7515                 5.8048
 IR Inten    --    33.4093                47.1897               117.4493

                   103                    104                    105
                     A                      A                      A
 Frequencies --  3039.3512              3056.0961              3060.8629
 Red. masses --     1.0642                 1.0383                 1.0413
 Frc consts  --     5.7918                 5.7136                 5.7480
 IR Inten    --    25.4418                30.2775                93.8945

                   106                    107                    108
                     A                      A                      A
 Frequencies --  3063.6487              3065.8748              3068.1811
 Red. masses --     1.0970                 1.0920                 1.0741
 Frc consts  --     6.0664                 6.0474                 5.9574
 IR Inten    --    75.4443                90.2708                73.6391

                   109                    110                    111
                     A                      A                      A
 Frequencies --  3071.5486              3072.6743              3080.3854
 Red. masses --     1.0942                 1.1000                 1.1034
 Frc consts  --     6.0824                 6.1191                 6.1686
 IR Inten    --    49.0528                39.8864               160.0119

                   112                    113                    114
                     A                      A                      A
 Frequencies --  3110.8547              3115.9061              3131.0631
 Red. masses --     1.1047                 1.1047                 1.0937
 Frc consts  --     6.2986                 6.3192                 6.3172
 IR Inten    --    56.7772                 4.8006                 5.6568

                   115                    116                    117
                     A                      A                      A
 Frequencies --  3139.2002              3148.6362              3205.1136
 Red. masses --     1.0639                 1.0884                 1.1055
 Frc consts  --     6.1772                 6.3577                 6.6911
 IR Inten    --    14.4285                23.7502                 4.1561

                   118                    119                    120
                     A                      A                      A
 Frequencies --  3207.6453              3208.9529              3487.8677
 Red. masses --     1.0950                 1.0974                 1.0769
 Frc consts  --     6.6380                 6.6582                 7.7190
 IR Inten    --    15.4729                 9.8743                55.4175

 - Thermochemistry -
 -------------------
 Temperature   298.150 Kelvin.  Pressure   1.00000 Atm.
 Atom     1 has atomic number  6 and mass  12.00000

 Molecular mass:   256.17869 amu.
 Principal axes and moments of inertia in atomic units:
                           1         2         3
     Eigenvalues --  4485.315445528.772388393.99574
           X            0.99160   0.12919   0.00600
           Y           -0.12923   0.99160   0.00560
           Z           -0.00523  -0.00632   0.99997
 This molecule is an asymmetric top.
 Rotational symmetry number  1.
 Warning -- assumption of classical behavior for rotation
           may cause significant error
 Rotational temperatures (Kelvin)      0.01931     0.01567     0.01032
 Rotational constants (GHZ):           0.40237     0.32643     0.21500
 Zero-point vibrational energy     983592.3 (Joules/Mol)
                                  235.08420 (Kcal/Mol)
 Warning -- explicit consideration of  29 degrees of freedom as
           vibrations may cause significant error
 Vibrational temperatures:     37.03    54.74    63.85    81.54    90.00
          (Kelvin)             97.45   124.19   146.38   150.98   187.33
                              236.04   256.97   294.07   336.24   382.36
                              397.11   436.78   446.26   533.25   563.70
                              584.17   605.69   641.66   686.12   696.23
                              720.76   772.98   815.85   878.50   928.18
                              988.92  1061.99  1129.63  1138.42  1151.49
                             1209.46  1237.27  1241.33  1254.39  1290.49
                             1338.23  1373.21  1379.13  1419.00  1447.36
                             1458.07  1473.92  1504.48  1511.27  1531.56
                             1551.33  1581.14  1587.77  1631.19  1640.82
                             1660.32  1681.21  1694.01  1705.13  1772.16
                             1791.09  1825.09  1852.16  1857.87  1871.69
                             1883.15  1903.64  1948.94  1958.71  1963.92
                             1970.13  1992.08  2007.68  2010.39  2020.48
                             2027.56  2040.39  2050.27  2084.47  2097.81
                             2108.62  2153.29  2164.84  2167.79  2169.15
                             2173.24  2177.51  2186.08  2189.34  2192.61
                             2193.32  2207.07  2238.48  2390.17  2457.44
                             2543.29  4029.92  4333.21  4342.19  4353.25
                             4359.96  4366.47  4372.94  4397.04  4403.89
                             4407.90  4411.10  4414.42  4419.27  4420.89
                             4431.98  4475.82  4483.09  4504.90  4516.60
                             4530.18  4611.44  4615.08  4616.96  5018.26

 Zero-point correction=                           0.374631 (Hartree/Particle)
 Thermal correction to Energy=                    0.393874
 Thermal correction to Enthalpy=                  0.394818
 Thermal correction to Gibbs Free Energy=         0.325032
 Sum of electronic and zero-point Energies=           -844.666623
 Sum of electronic and thermal Energies=              -844.647379
 Sum of electronic and thermal Enthalpies=            -844.646435
 Sum of electronic and thermal Free Energies=         -844.716222

                     E (Thermal)             CV                S
                      KCal/Mol        Cal/Mol-Kelvin    Cal/Mol-Kelvin
 Total                  247.160             71.119            146.878
 Electronic               0.000              0.000              0.000
 Translational            0.889              2.981             42.522
 Rotational               0.889              2.981             33.698
 Vibrational            245.382             65.158             70.658
 Vibration     1          0.593              1.985              6.133
 Vibration     2          0.594              1.982              5.358
 Vibration     3          0.595              1.980              5.054
 Vibration     4          0.596              1.975              4.570
 Vibration     5          0.597              1.972              4.375
 Vibration     6          0.598              1.970              4.218
 Vibration     7          0.601              1.959              3.742
 Vibration     8          0.604              1.948              3.421
 Vibration     9          0.605              1.945              3.360
 Vibration    10          0.612              1.923              2.943
 Vibration    11          0.623              1.887              2.502
 Vibration    12          0.629              1.869              2.343
 Vibration    13          0.640              1.834              2.093
 Vibration    14          0.654              1.789              1.850
 Vibration    15          0.672              1.736              1.624
 Vibration    16          0.678              1.718              1.558
 Vibration    17          0.695              1.667              1.397
 Vibration    18          0.699              1.654              1.361
 Vibration    19          0.743              1.533              1.077
 Vibration    20          0.759              1.488              0.993
 Vibration    21          0.771              1.457              0.941
 Vibration    22          0.783              1.425              0.889
 Vibration    23          0.805              1.370              0.808
 Vibration    24          0.833              1.301              0.719
 Vibration    25          0.840              1.286              0.700
 Vibration    26          0.856              1.248              0.656
 Vibration    27          0.892              1.168              0.571
 Vibration    28          0.923              1.103              0.510
 Vibration    29          0.970              1.009              0.432

 Optimization completed.
    -- Stationary point found.
 Normal termination of Gaussian 09 at Sat Feb 17 21:34:31 2018.
