 Gaussian 09, Revision C.01,
 Gaussian 09:  AM64L-G09RevC.01 23-Sep-2011

 ----------------------------------------------------------------------
 #HF/6-31G* Geom=AllCheck Guess=Read Pop=(MK,ReadRadii) Integral=(Grid=
 UltraFine) iop(6/33=2)
 ----------------------------------------------------------------------

 Structure from the checkpoint file:  frag2-conf2.chk
 ----------------------------
 Optimization for frag2-conf2
 ----------------------------
 Charge =  0 Multiplicity = 1

                         Standard orientation:
 ---------------------------------------------------------------------
 Center     Atomic      Atomic             Coordinates (Angstroms)
 Number     Number       Type             X           Y           Z
 ---------------------------------------------------------------------
      1          6           0        0.307619    1.604298   -0.364488
      2          6           0        3.248494   -1.783919   -0.254227
      3          6           0       -3.648687   -1.567962   -0.902498
      4          6           0       -3.058056   -0.149743   -0.861836
      5          6           0       -2.655179   -2.607456   -0.360608
      6          6           0       -2.560526    0.209773    0.548226
      7          6           0       -2.162091   -2.230337    1.046695
      8          6           0       -1.548232   -0.812575    1.114951
      9          6           0       -0.176394    3.908995   -0.956153
     10          6           0        0.258171    3.416740    1.404442
     11          6           0        2.703591   -0.375236   -0.649818
     12          6           0       -0.156305   -0.790115    0.441059
     13          6           0        0.633661    0.508793    0.675939
     14          7           0        0.159695    2.892682    0.042413
     15          7           0        2.123688    0.225397    0.607036
     16          8           0        3.782582   -2.443899   -1.158644
     17          8           0        0.216868    1.265672   -1.550798
     18          8           0        3.072133   -2.079381    0.970112
     19          1           0       -4.563045   -1.593616   -0.290909
     20          1           0       -3.949279   -1.826053   -1.926083
     21          1           0       -2.229247   -0.071756   -1.577732
     22          1           0       -3.811363    0.581913   -1.181295
     23          1           0       -3.122625   -3.600045   -0.332352
     24          1           0       -1.801685   -2.689905   -1.048094
     25          1           0       -2.141723    1.223754    0.555948
     26          1           0       -3.422685    0.237010    1.229890
     27          1           0       -3.015278   -2.266515    1.738912
     28          1           0       -1.436200   -2.970730    1.407777
     29          1           0       -1.388560   -0.573515    2.176542
     30          1           0       -1.093425    4.428310   -0.656723
     31          1           0       -0.322772    3.427779   -1.920295
     32          1           0        0.633242    4.643923   -1.030092
     33          1           0        0.915798    4.292073    1.400919
     34          1           0        0.671904    2.692374    2.101457
     35          1           0       -0.729585    3.727113    1.764791
     36          1           0        1.934259   -0.433278   -1.417132
     37          1           0        3.507043    0.267524   -1.011599
     38          1           0        0.433894   -1.613328    0.860524
     39          1           0       -0.233686   -0.966109   -0.634468
     40          1           0        0.471946    0.837591    1.701648
     41          1           0        2.371906   -0.565268    1.280804
     42          1           0        2.648421    1.057523    0.885958
 ---------------------------------------------------------------------

 SCF Done:  E(RHF) =  -839.716881368     A.U. after   13 cycles

 The electronic state is 1-A.
 Alpha  occ. eigenvalues --  -20.56277 -20.47751 -20.45728 -15.69973 -15.64146
 Alpha  occ. eigenvalues --  -11.39884 -11.33981 -11.31470 -11.31372 -11.28850
 Alpha  occ. eigenvalues --  -11.28075 -11.25182 -11.25055 -11.23680 -11.22947
 Alpha  occ. eigenvalues --  -11.22508 -11.22390 -11.22333  -1.41529  -1.35241
 Alpha  occ. eigenvalues --   -1.31182  -1.28490  -1.23695  -1.13845  -1.08333
 Alpha  occ. eigenvalues --   -1.02477  -1.01249  -1.01062  -0.98092  -0.96705
 Alpha  occ. eigenvalues --   -0.89734  -0.84011  -0.82917  -0.79755  -0.77514
 Alpha  occ. eigenvalues --   -0.75865  -0.73156  -0.72827  -0.69658  -0.68736
 Alpha  occ. eigenvalues --   -0.68030  -0.66282  -0.64714  -0.62986  -0.61588
 Alpha  occ. eigenvalues --   -0.61269  -0.60228  -0.60001  -0.59743  -0.58840
 Alpha  occ. eigenvalues --   -0.57426  -0.57229  -0.55958  -0.55710  -0.55341
 Alpha  occ. eigenvalues --   -0.54445  -0.53422  -0.51746  -0.51199  -0.49786
 Alpha  occ. eigenvalues --   -0.48858  -0.48585  -0.45631  -0.45317  -0.43686
 Alpha  occ. eigenvalues --   -0.43498  -0.40973  -0.38698  -0.36040  -0.35499
 Alpha virt. eigenvalues --    0.12755   0.15548   0.19251   0.20689   0.21563
 Alpha virt. eigenvalues --    0.23594   0.24021   0.25591   0.25920   0.26175
 Alpha virt. eigenvalues --    0.26879   0.27483   0.28191   0.28516   0.29224

 Mulliken atomic charges:
              1
     1  C    0.810094
     2  C    0.796307
     3  C   -0.311072
     4  C   -0.324749
     5  C   -0.320081
     6  C   -0.324349
     7  C   -0.318355
     8  C   -0.171140
     9  C   -0.304993
    10  C   -0.291200
    11  C   -0.297975
    12  C   -0.367163
    13  C   -0.090716
    14  N   -0.672741
    15  N   -0.814241
    16  O   -0.674305
    17  O   -0.628943
    18  O   -0.763361
    19  H    0.148848
    20  H    0.168997
    21  H    0.186777
    22  H    0.161513
    23  H    0.170582
    24  H    0.167083
    25  H    0.143921
    26  H    0.163479
    27  H    0.160454
    28  H    0.179960
    29  H    0.156245
    30  H    0.177326
    31  H    0.250477
    32  H    0.177199
    33  H    0.193680
    34  H    0.177493
    35  H    0.196214
    36  H    0.273643
    37  H    0.219738
    38  H    0.232610
    39  H    0.230302
    40  H    0.218903
    41  H    0.495725
    42  H    0.417812
 Sum of Mulliken atomic charges =   0.00000

 Dipole moment (field-independent basis, Debye):
    X=             -6.2982    Y=             11.6842    Z=              4.5481  Tot=             14.0311
 Quadrupole moment (field-independent basis, Debye-Ang):
   XX=           -136.3491   YY=           -115.4111   ZZ=           -115.6991
   XY=             34.9017   XZ=              6.4502   YZ=              3.6198

 Normal termination of Gaussian 09 at Sun Feb 18 17:11:46 2018.
