 Gaussian 09, Revision C.01,
 Gaussian 09:  AM64L-G09RevC.01 23-Sep-2011

 ----------------------------------------------------------------------
 #HF/6-31G* Geom=AllCheck Guess=Read Pop=(MK,ReadRadii) Integral=(Grid=
 UltraFine) iop(6/33=2)
 ----------------------------------------------------------------------

 Structure from the checkpoint file:  frag23-conf1.chk
 -----------------------------
 Optimization for frag23-conf1
 -----------------------------
 Charge =  0 Multiplicity = 1

                         Standard orientation:
 ---------------------------------------------------------------------
 Center     Atomic      Atomic             Coordinates (Angstroms)
 Number     Number       Type             X           Y           Z
 ---------------------------------------------------------------------
      1          6           0        1.770638   -0.730351   -0.258063
      2          6           0        3.900702    0.138678    0.550431
      3          6           0        2.233768    1.748102   -0.264827
      4          6           0       -2.764779    0.900698   -1.163116
      5          6           0        0.343623   -0.466285   -0.771993
      6          7           0       -0.495299    0.127376    0.271570
      7          7           0        2.571787    0.359585   -0.006240
      8          8           0        2.151188   -1.879932   -0.086606
      9          8           0       -2.631779    0.624897    1.463673
     10          8           0       -2.445238   -1.456096   -0.029570
     11         16           0       -2.162580   -0.051162    0.254869
     12          1           0        4.673682    0.481578   -0.149975
     13          1           0        4.023638   -0.927614    0.732807
     14          1           0        4.015096    0.691393    1.491663
     15          1           0        2.155461    2.320509    0.671089
     16          1           0        1.293428    1.838066   -0.809191
     17          1           0        3.015257    2.217811   -0.876412
     18          1           0       -3.847869    0.763493   -1.202953
     19          1           0       -2.527173    1.956395   -1.016676
     20          1           0       -2.310742    0.516356   -2.079226
     21          1           0        0.360923    0.127036   -1.700705
     22          1           0       -0.067683   -1.449743   -0.996906
     23          1           0       -0.215223    1.018580    0.666717
 ---------------------------------------------------------------------

 SCF Done:  E(RHF) =  -927.233452531     A.U. after   13 cycles

 The electronic state is 1-A.
 Alpha  occ. eigenvalues --  -92.22178 -20.56307 -20.56273 -20.53743 -15.62293
 Alpha  occ. eigenvalues --  -15.61018 -11.37120 -11.30344 -11.29526 -11.28927
 Alpha  occ. eigenvalues --  -11.26659  -9.19200  -6.87808  -6.87785  -6.87684
 Alpha  occ. eigenvalues --   -1.46158  -1.39097  -1.34366  -1.26209  -1.24386
 Alpha  occ. eigenvalues --   -1.04963  -1.00918  -0.99062  -0.93344  -0.84586
 Alpha  occ. eigenvalues --   -0.76981  -0.72877  -0.71492  -0.69868  -0.67421
 Alpha  occ. eigenvalues --   -0.66444  -0.66044  -0.64759  -0.61855  -0.60665
 Alpha  occ. eigenvalues --   -0.59918  -0.58923  -0.57628  -0.56069  -0.54581
 Alpha  occ. eigenvalues --   -0.53204  -0.50930  -0.49686  -0.47285  -0.46440
 Alpha  occ. eigenvalues --   -0.46140  -0.41451  -0.38333
 Alpha virt. eigenvalues --    0.16129   0.19044   0.21175   0.23016   0.23922
 Alpha virt. eigenvalues --    0.25162   0.26022   0.26314   0.27232   0.27638
 Alpha virt. eigenvalues --    0.28861   0.29751   0.30279   0.31305   0.32053

 Mulliken atomic charges:
              1
     1  C    0.787021
     2  C   -0.296478
     3  C   -0.295477
     4  C   -0.714769
     5  C   -0.250385
     6  N   -0.879695
     7  N   -0.657933
     8  O   -0.602293
     9  O   -0.679856
    10  O   -0.680707
    11  S    1.606563
    12  H    0.166461
    13  H    0.244331
    14  H    0.168607
    15  H    0.180435
    16  H    0.171811
    17  H    0.189147
    18  H    0.245071
    19  H    0.213793
    20  H    0.217548
    21  H    0.175257
    22  H    0.278576
    23  H    0.412972
 Sum of Mulliken atomic charges =   0.00000

 Dipole moment (field-independent basis, Debye):
    X=              2.4853    Y=              6.7725    Z=             -4.2179  Tot=              8.3567
 Quadrupole moment (field-independent basis, Debye-Ang):
   XX=            -74.4733   YY=            -80.7823   ZZ=            -74.6827
   XY=              2.9021   XZ=             11.0597   YZ=             -2.1885

 Normal termination of Gaussian 09 at Sat Feb 17 21:00:01 2018.
