 Gaussian 09, Revision C.01,
 Gaussian 09:  AM64L-G09RevC.01 23-Sep-2011

 ----------------------------------------------------------------------
 #HF/6-31G* Geom=AllCheck Guess=Read Pop=(MK,ReadRadii) Integral=(Grid=
 UltraFine) iop(6/33=2)
 ----------------------------------------------------------------------

 Structure from the checkpoint file:  frag24-conf2.chk
 -----------------------------
 Optimization for frag24-conf2
 -----------------------------
 Charge =  0 Multiplicity = 1

                         Standard orientation:
 ---------------------------------------------------------------------
 Center     Atomic      Atomic             Coordinates (Angstroms)
 Number     Number       Type             X           Y           Z
 ---------------------------------------------------------------------
      1          6           0        1.462791   -0.243840   -0.469917
      2          6           0        0.669239    2.096631   -1.003762
      3          6           0        3.679863   -1.098650    0.046192
      4          6           0        2.812515    0.760155    1.397694
      5          6           0       -3.462094    0.767149   -0.067083
      6          6           0        0.331158    0.791587   -0.261970
      7          7           0       -0.907145    0.214344   -0.808828
      8          7           0        2.594609   -0.153785    0.287042
      9          8           0        1.326340   -1.087937   -1.356890
     10          8           0       -1.648706   -0.089643    1.650812
     11          8           0       -2.483211   -1.687776   -0.166008
     12         16           0       -2.087095   -0.346684    0.271275
     13          1           0        0.812981    1.896868   -2.070423
     14          1           0       -0.152885    2.810379   -0.895592
     15          1           0        1.584604    2.555942   -0.614454
     16          1           0        4.610492   -0.558131   -0.167828
     17          1           0        3.413712   -1.725319   -0.803081
     18          1           0        3.839434   -1.729068    0.930403
     19          1           0        2.959042    0.198162    2.329414
     20          1           0        1.970041    1.434150    1.537612
     21          1           0        3.711463    1.364898    1.219791
     22          1           0       -4.286002    0.468838    0.585375
     23          1           0       -3.152611    1.790125    0.153743
     24          1           0       -3.746065    0.664331   -1.115355
     25          1           0        0.163155    0.988180    0.798094
     26          1           0       -0.662302   -0.551659   -1.445833
 ---------------------------------------------------------------------

 SCF Done:  E(RHF) =  -966.281223921     A.U. after   13 cycles

 The electronic state is 1-A.
 Alpha  occ. eigenvalues --  -92.20871 -20.55801 -20.55368 -20.53775 -15.60908
 Alpha  occ. eigenvalues --  -15.60074 -11.36745 -11.29901 -11.28331 -11.27557
 Alpha  occ. eigenvalues --  -11.26399 -11.24374  -9.18009  -6.86595  -6.86582
 Alpha  occ. eigenvalues --   -6.86475  -1.45049  -1.39176  -1.33338  -1.25686
 Alpha  occ. eigenvalues --   -1.23199  -1.05921  -1.02207  -0.98438  -0.95530
 Alpha  occ. eigenvalues --   -0.88472  -0.82565  -0.75811  -0.73507  -0.69879
 Alpha  occ. eigenvalues --   -0.67301  -0.67102  -0.66352  -0.64948  -0.62174
 Alpha  occ. eigenvalues --   -0.61192  -0.59897  -0.59303  -0.58037  -0.57675
 Alpha  occ. eigenvalues --   -0.56900  -0.55850  -0.54463  -0.53034  -0.51591
 Alpha  occ. eigenvalues --   -0.50873  -0.48744  -0.46442  -0.45546  -0.43788
 Alpha  occ. eigenvalues --   -0.41854  -0.38242
 Alpha virt. eigenvalues --    0.17453   0.20615   0.22288   0.24412   0.25042
 Alpha virt. eigenvalues --    0.25777   0.25985   0.27695   0.27986   0.28250
 Alpha virt. eigenvalues --    0.29084   0.30237   0.30520   0.30898   0.31803

 Mulliken atomic charges:
              1
     1  C    0.797056
     2  C   -0.465173
     3  C   -0.298147
     4  C   -0.285223
     5  C   -0.692585
     6  C   -0.101027
     7  N   -0.903071
     8  N   -0.666021
     9  O   -0.650761
    10  O   -0.705877
    11  O   -0.679887
    12  S    1.598451
    13  H    0.191461
    14  H    0.181440
    15  H    0.169192
    16  H    0.166642
    17  H    0.242853
    18  H    0.172428
    19  H    0.187846
    20  H    0.188037
    21  H    0.177587
    22  H    0.230475
    23  H    0.215334
    24  H    0.228204
    25  H    0.250016
    26  H    0.450752
 Sum of Mulliken atomic charges =   0.00000

 Dipole moment (field-independent basis, Debye):
    X=              2.3354    Y=              5.3388    Z=              0.3734  Tot=              5.8392
 Quadrupole moment (field-independent basis, Debye-Ang):
   XX=            -65.2129   YY=            -84.4553   ZZ=            -86.3277
   XY=             -7.3199   XZ=              7.9041   YZ=             -1.6527

 Normal termination of Gaussian 09 at Sat Feb 17 21:00:42 2018.
