 Gaussian 09, Revision C.01,
 Gaussian 09:  AM64L-G09RevC.01 23-Sep-2011

 ---------------------------------------------------------
 #B3LYP/6-31G* Integral=(Grid=UltraFine) freq Opt pop=none
 ---------------------------------------------------------

 99/9=1/99;
 -----------------------------
 Optimization for frag24-conf2
 -----------------------------
 Charge =  0 Multiplicity = 1

 SCF Done:  E(RB3LYP) =  -970.370524848     A.U. after   15 cycles
 SCF Done:  E(RB3LYP) =  -970.376706688     A.U. after   15 cycles
 SCF Done:  E(RB3LYP) =  -970.376977376     A.U. after   13 cycles
 SCF Done:  E(RB3LYP) =  -970.377668876     A.U. after   12 cycles
 SCF Done:  E(RB3LYP) =  -970.378062540     A.U. after   12 cycles
 SCF Done:  E(RB3LYP) =  -970.378338725     A.U. after   12 cycles
 SCF Done:  E(RB3LYP) =  -970.378501698     A.U. after   13 cycles
 SCF Done:  E(RB3LYP) =  -970.378751980     A.U. after   12 cycles
 SCF Done:  E(RB3LYP) =  -970.379054778     A.U. after   12 cycles
 SCF Done:  E(RB3LYP) =  -970.379255527     A.U. after   15 cycles
 SCF Done:  E(RB3LYP) =  -970.379529479     A.U. after   11 cycles
 SCF Done:  E(RB3LYP) =  -970.379530921     A.U. after   11 cycles
 SCF Done:  E(RB3LYP) =  -970.379533070     A.U. after   11 cycles
 SCF Done:  E(RB3LYP) =  -970.379534479     A.U. after   11 cycles
 SCF Done:  E(RB3LYP) =  -970.379536380     A.U. after   10 cycles
 SCF Done:  E(RB3LYP) =  -970.379537118     A.U. after    9 cycles
 SCF Done:  E(RB3LYP) =  -970.379537358     A.U. after    7 cycles
 SCF Done:  E(RB3LYP) =  -970.379537408     A.U. after    8 cycles
 SCF Done:  E(RB3LYP) =  -970.379537421     A.U. after    7 cycles
 Optimization completed.
    -- Stationary point found.
 Normal termination of Gaussian 09 at Fri Feb 16 20:18:39 2018.

 --------------------------------------------------------------------
 #N Geom=AllCheck Guess=TCheck SCRF=Check GenChk RB3LYP/6-31G(d) Freq
 --------------------------------------------------------------------

 Structure from the checkpoint file:  frag24-conf2.chk
 -----------------------------
 Optimization for frag24-conf2
 -----------------------------
 Charge =  0 Multiplicity = 1

                         Standard orientation:
 ---------------------------------------------------------------------
 Center     Atomic      Atomic             Coordinates (Angstroms)
 Number     Number       Type             X           Y           Z
 ---------------------------------------------------------------------
      1          6           0        1.462791   -0.243840   -0.469917
      2          6           0        0.669239    2.096631   -1.003762
      3          6           0        3.679863   -1.098650    0.046192
      4          6           0        2.812515    0.760155    1.397694
      5          6           0       -3.462094    0.767149   -0.067083
      6          6           0        0.331158    0.791587   -0.261970
      7          7           0       -0.907145    0.214344   -0.808828
      8          7           0        2.594609   -0.153785    0.287042
      9          8           0        1.326340   -1.087937   -1.356890
     10          8           0       -1.648706   -0.089643    1.650812
     11          8           0       -2.483211   -1.687776   -0.166008
     12         16           0       -2.087095   -0.346684    0.271275
     13          1           0        0.812981    1.896868   -2.070423
     14          1           0       -0.152885    2.810379   -0.895592
     15          1           0        1.584604    2.555942   -0.614454
     16          1           0        4.610492   -0.558131   -0.167828
     17          1           0        3.413712   -1.725319   -0.803081
     18          1           0        3.839434   -1.729068    0.930403
     19          1           0        2.959042    0.198162    2.329414
     20          1           0        1.970041    1.434150    1.537612
     21          1           0        3.711463    1.364898    1.219791
     22          1           0       -4.286002    0.468838    0.585375
     23          1           0       -3.152611    1.790125    0.153743
     24          1           0       -3.746065    0.664331   -1.115355
     25          1           0        0.163155    0.988180    0.798094
     26          1           0       -0.662302   -0.551659   -1.445833
 ---------------------------------------------------------------------

 SCF Done:  E(RB3LYP) =  -970.379537421     A.U. after    1 cycles

 Isotropic polarizability for W=    0.000000      102.40 Bohr**3.
 End of Minotr Frequency-dependent properties file   721 does not exist.

                     1                      2                      3
                     A                      A                      A
 Frequencies --    18.0211                26.4875                52.8467
 Red. masses --     3.6261                 4.3512                 2.0971
 Frc consts  --     0.0007                 0.0018                 0.0035
 IR Inten    --     2.6151                 5.2394                 0.2824

                     4                      5                      6
                     A                      A                      A
 Frequencies --    83.7517                93.9399               130.7776
 Red. masses --     2.4459                 2.0562                 1.2294
 Frc consts  --     0.0101                 0.0107                 0.0124
 IR Inten    --     0.9290                 0.4754                 0.0523

                     7                      8                      9
                     A                      A                      A
 Frequencies --   159.9420               198.1250               221.7452
 Red. masses --     3.5474                 2.9812                 1.1444
 Frc consts  --     0.0535                 0.0689                 0.0332
 IR Inten    --     2.5223                 6.8778                 0.2120

                    10                     11                     12
                     A                      A                      A
 Frequencies --   228.6261               234.2260               254.8219
 Red. masses --     1.0524                 2.6436                 2.6354
 Frc consts  --     0.0324                 0.0855                 0.1008
 IR Inten    --     0.3953                 3.5250                 1.7647

                    13                     14                     15
                     A                      A                      A
 Frequencies --   275.2882               319.9709               347.3903
 Red. masses --     4.5981                 3.3993                 4.4769
 Frc consts  --     0.2053                 0.2051                 0.3183
 IR Inten    --     1.0192                 1.7144                 5.3872

                    16                     17                     18
                     A                      A                      A
 Frequencies --   372.6596               398.2287               427.1606
 Red. masses --     3.4080                 4.7700                 2.7237
 Frc consts  --     0.2789                 0.4457                 0.2928
 IR Inten    --     7.6385                57.7883                 9.2141

                    19                     20                     21
                     A                      A                      A
 Frequencies --   471.3874               505.1088               519.6183
 Red. masses --     5.0735                 5.0330                 6.1598
 Frc consts  --     0.6642                 0.7566                 0.9799
 IR Inten    --     2.8156                42.6066                25.4060

                    22                     23                     24
                     A                      A                      A
 Frequencies --   613.6896               679.9265               730.7146
 Red. masses --     4.4083                 2.9010                 5.1131
 Frc consts  --     0.9782                 0.7902                 1.6085
 IR Inten    --     1.9117                74.0226                 4.6473

                    25                     26                     27
                     A                      A                      A
 Frequencies --   738.1921               778.2163               911.9800
 Red. masses --     3.5680                 3.9888                 1.5301
 Frc consts  --     1.1456                 1.4233                 0.7498
 IR Inten    --    31.4031                70.9442                74.7375

                    28                     29                     30
                     A                      A                      A
 Frequencies --   959.6704               973.0787               997.0178
 Red. masses --     3.3293                 2.5774                 1.3438
 Frc consts  --     1.8066                 1.4379                 0.7870
 IR Inten    --    73.8482                37.6607                 0.0705

                    31                     32                     33
                     A                      A                      A
 Frequencies --  1000.2121              1081.1139              1087.9650
 Red. masses --     1.4561                 1.6197                 1.3937
 Frc consts  --     0.8583                 1.1154                 0.9720
 IR Inten    --    65.8087                19.9209                 2.7109

                    34                     35                     36
                     A                      A                      A
 Frequencies --  1108.0295              1120.7442              1138.2200
 Red. masses --     2.9123                 5.8252                 1.2412
 Frc consts  --     2.1066                 4.3110                 0.9475
 IR Inten    --    23.4512               147.0738                 3.7439

                    37                     38                     39
                     A                      A                      A
 Frequencies --  1140.6979              1186.6619              1195.2463
 Red. masses --     2.4527                 1.3997                 2.1309
 Frc consts  --     1.8803                 1.1613                 1.7936
 IR Inten    --   139.5077                 3.9458                22.4369

                    40                     41                     42
                     A                      A                      A
 Frequencies --  1281.4887              1303.0381              1337.2743
 Red. masses --     3.9984                 2.1656                 2.8683
 Frc consts  --     3.8687                 2.1664                 3.0221
 IR Inten    --    35.7553                73.9683                86.4607

                    43                     44                     45
                     A                      A                      A
 Frequencies --  1360.1193              1382.1052              1428.3228
 Red. masses --     1.2601                 1.2165                 1.4303
 Frc consts  --     1.3735                 1.3691                 1.7193
 IR Inten    --    49.6895                 8.7468                63.3634

                    46                     47                     48
                     A                      A                      A
 Frequencies --  1441.6644              1453.2804              1479.1467
 Red. masses --     1.5222                 1.1641                 1.4547
 Frc consts  --     1.8640                 1.4485                 1.8752
 IR Inten    --   163.9747                 5.4288                22.1995

                    49                     50                     51
                     A                      A                      A
 Frequencies --  1484.7878              1488.2376              1500.8710
 Red. masses --     1.0508                 1.1291                 1.1545
 Frc consts  --     1.3649                 1.4734                 1.5322
 IR Inten    --     4.4910                 1.5206                10.2984

                    52                     53                     54
                     A                      A                      A
 Frequencies --  1510.4038              1517.6410              1528.8107
 Red. masses --     1.0494                 1.0510                 1.0559
 Frc consts  --     1.4105                 1.4263                 1.4540
 IR Inten    --     5.2614                 7.8602                 9.9294

                    55                     56                     57
                     A                      A                      A
 Frequencies --  1531.0423              1533.4195              1567.6936
 Red. masses --     1.0719                 1.0537                 1.2880
 Frc consts  --     1.4804                 1.4598                 1.8651
 IR Inten    --     5.5432                16.4374                28.3250

                    58                     59                     60
                     A                      A                      A
 Frequencies --  1743.3245              3034.6146              3042.0304
 Red. masses --     8.7040                 1.0401                 1.0399
 Frc consts  --    15.5856                 5.6434                 5.6699
 IR Inten    --   268.5699                23.9917                81.4076

                    61                     62                     63
                     A                      A                      A
 Frequencies --  3058.7804              3080.4153              3087.2045
 Red. masses --     1.0347                 1.1048                 1.0295
 Frc consts  --     5.7038                 6.1766                 5.7809
 IR Inten    --    19.7401                34.7516                 0.7781

                    64                     65                     66
                     A                      A                      A
 Frequencies --  3089.2364              3122.9056              3131.8044
 Red. masses --     1.1051                 1.0914                 1.0990
 Frc consts  --     6.2140                 6.2709                 6.3511
 IR Inten    --    23.1664                 3.1945                39.1287

                    67                     68                     69
                     A                      A                      A
 Frequencies --  3143.2492              3185.4880              3195.3863
 Red. masses --     1.1004                 1.1066                 1.1079
 Frc consts  --     6.4057                 6.6157                 6.6649
 IR Inten    --    10.6227                 1.7130                 1.2374

                    70                     71                     72
                     A                      A                      A
 Frequencies --  3197.5357              3199.5009              3424.5674
 Red. masses --     1.0941                 1.0956                 1.0728
 Frc consts  --     6.5908                 6.6081                 7.4131
 IR Inten    --     6.9912                 5.2000               123.0500

 - Thermochemistry -
 -------------------
 Temperature   298.150 Kelvin.  Pressure   1.00000 Atm.
 Atom     1 has atomic number  6 and mass  12.00000

 Molecular mass:   194.07251 amu.
 Principal axes and moments of inertia in atomic units:
                           1         2         3
     Eigenvalues --  1206.110083982.924224148.91805
           X            0.99976  -0.01238   0.01782
           Y            0.01334   0.99840  -0.05491
           Z           -0.01711   0.05513   0.99833
 This molecule is an asymmetric top.
 Rotational symmetry number  1.
 Warning -- assumption of classical behavior for rotation
           may cause significant error
 Rotational temperatures (Kelvin)      0.07181     0.02175     0.02088
 Rotational constants (GHZ):           1.49633     0.45312     0.43499
 Zero-point vibrational energy     566114.1 (Joules/Mol)
                                  135.30452 (Kcal/Mol)
 Warning -- explicit consideration of  22 degrees of freedom as
           vibrations may cause significant error
 Vibrational temperatures:     25.93    38.11    76.03   120.50   135.16
          (Kelvin)            188.16   230.12   285.06   319.04   328.94
                              337.00   366.63   396.08   460.37   499.82
                              536.17   572.96   614.59   678.22   726.74
                              747.61   882.96   978.26  1051.33  1062.09
                             1119.68  1312.13  1380.75  1400.04  1434.48
                             1439.08  1555.48  1565.34  1594.21  1612.50
                             1637.64  1641.21  1707.34  1719.69  1843.77
                             1874.78  1924.04  1956.91  1988.54  2055.04
                             2074.23  2090.94  2128.16  2136.28  2141.24
                             2159.42  2173.13  2183.54  2199.61  2202.83
                             2206.25  2255.56  2508.25  4366.13  4376.80
                             4400.90  4432.02  4441.79  4444.72  4493.16
                             4505.96  4522.43  4583.20  4597.44  4600.53
                             4603.36  4927.18

 Zero-point correction=                           0.215621 (Hartree/Particle)
 Thermal correction to Energy=                    0.230367
 Thermal correction to Enthalpy=                  0.231311
 Thermal correction to Gibbs Free Energy=         0.172013
 Sum of electronic and zero-point Energies=           -970.163916
 Sum of electronic and thermal Energies=              -970.149171
 Sum of electronic and thermal Enthalpies=            -970.148226
 Sum of electronic and thermal Free Energies=         -970.207524

                     E (Thermal)             CV                S
                      KCal/Mol        Cal/Mol-Kelvin    Cal/Mol-Kelvin
 Total                  144.557             51.628            124.803
 Electronic               0.000              0.000              0.000
 Translational            0.889              2.981             41.695
 Rotational               0.889              2.981             31.367
 Vibrational            142.780             45.666             51.742
 Vibration     1          0.593              1.986              6.841
 Vibration     2          0.593              1.985              6.077
 Vibration     3          0.596              1.976              4.708
 Vibration     4          0.601              1.960              3.801
 Vibration     5          0.603              1.954              3.576
 Vibration     6          0.612              1.923              2.935
 Vibration     7          0.622              1.891              2.550
 Vibration     8          0.637              1.843              2.150
 Vibration     9          0.648              1.808              1.945
 Vibration    10          0.651              1.797              1.890
 Vibration    11          0.654              1.788              1.846
 Vibration    12          0.665              1.755              1.697
 Vibration    13          0.677              1.719              1.563
 Vibration    14          0.706              1.635              1.310
 Vibration    15          0.725              1.581              1.178
 Vibration    16          0.744              1.528              1.069
 Vibration    17          0.765              1.474              0.969
 Vibration    18          0.789              1.411              0.868
 Vibration    19          0.828              1.314              0.734
 Vibration    20          0.860              1.239              0.645
 Vibration    21          0.875              1.207              0.611
 Vibration    22          0.973              1.003              0.427

 Optimization completed.
    -- Stationary point found.
 Normal termination of Gaussian 09 at Fri Feb 16 20:41:31 2018.
