 Gaussian 09, Revision C.01,
 Gaussian 09:  AM64L-G09RevC.01 23-Sep-2011

 ---------------------------------------------------------
 #B3LYP/6-31G* Integral=(Grid=UltraFine) freq Opt pop=none
 ---------------------------------------------------------

 99/9=1/99;
 -----------------------------
 Optimization for frag50-conf0
 -----------------------------
 Charge =  1 Multiplicity = 1

 SCF Done:  E(RB3LYP) =  -1253.54900292     A.U. after   15 cycles
 SCF Done:  E(RB3LYP) =  -1253.55899221     A.U. after   13 cycles
 SCF Done:  E(RB3LYP) =  -1253.56181229     A.U. after   13 cycles
 SCF Done:  E(RB3LYP) =  -1253.56276734     A.U. after   13 cycles
 SCF Done:  E(RB3LYP) =  -1253.56334729     A.U. after   12 cycles
 SCF Done:  E(RB3LYP) =  -1253.56364845     A.U. after   12 cycles
 SCF Done:  E(RB3LYP) =  -1253.56410473     A.U. after   12 cycles
 SCF Done:  E(RB3LYP) =  -1253.56450163     A.U. after   12 cycles
 SCF Done:  E(RB3LYP) =  -1253.56518088     A.U. after   12 cycles
 SCF Done:  E(RB3LYP) =  -1253.56573579     A.U. after   12 cycles
 SCF Done:  E(RB3LYP) =  -1253.56779897     A.U. after   14 cycles
 SCF Done:  E(RB3LYP) =  -1253.56793713     A.U. after   11 cycles
 SCF Done:  E(RB3LYP) =  -1253.56797115     A.U. after   10 cycles
 SCF Done:  E(RB3LYP) =  -1253.56798962     A.U. after   10 cycles
 SCF Done:  E(RB3LYP) =  -1253.56799765     A.U. after    9 cycles
 SCF Done:  E(RB3LYP) =  -1253.56800103     A.U. after   10 cycles
 SCF Done:  E(RB3LYP) =  -1253.56800176     A.U. after    9 cycles
 SCF Done:  E(RB3LYP) =  -1253.56800231     A.U. after    8 cycles
 SCF Done:  E(RB3LYP) =  -1253.56800257     A.U. after    7 cycles
 Optimization completed.
    -- Stationary point found.
 Normal termination of Gaussian 09 at Fri Feb 16 22:59:15 2018.

 --------------------------------------------------------------------
 #N Geom=AllCheck Guess=TCheck SCRF=Check GenChk RB3LYP/6-31G(d) Freq
 --------------------------------------------------------------------

 Structure from the checkpoint file:  frag50-conf0.chk
 -----------------------------
 Optimization for frag50-conf0
 -----------------------------
 Charge =  1 Multiplicity = 1

                         Standard orientation:
 ---------------------------------------------------------------------
 Center     Atomic      Atomic             Coordinates (Angstroms)
 Number     Number       Type             X           Y           Z
 ---------------------------------------------------------------------
      1          6           0        0.910831    1.638972   -0.421244
      2          6           0       -5.424289   -0.288123    0.215082
      3          6           0        2.067153    3.772890   -0.297156
      4          6           0        2.912709    1.911312    1.083441
      5          6           0        2.898009   -3.153791   -0.550074
      6          6           0       -1.704404    0.072212    0.175331
      7          6           0       -0.481888   -0.478569   -0.571616
      8          6           0       -3.007608   -0.485855   -0.397552
      9          6           0        0.847077    0.124057   -0.085206
     10          7           0       -6.365906    0.255109    1.006066
     11          7           0       -4.163677    0.134144    0.282838
     12          7           0        1.976494   -0.577065   -0.729137
     13          7           0        1.916717    2.379308    0.120442
     14          7           0       -5.768596   -1.271828   -0.627808
     15          8           0        0.069115    2.115239   -1.187753
     16          8           0        2.499894   -1.589893    1.552699
     17          8           0        4.403715   -1.035134   -0.073888
     18         16           0        3.047932   -1.521366    0.192050
     19          1           0        1.912351    4.443269    0.556881
     20          1           0        1.332874    3.991983   -1.069956
     21          1           0        3.078126    3.937327   -0.687745
     22          1           0        2.594162    1.003878    1.593491
     23          1           0        3.056491    2.689151    1.840731
     24          1           0        3.877205    1.715060    0.600370
     25          1           0        3.583761   -3.811711   -0.010920
     26          1           0        1.869353   -3.500040   -0.440728
     27          1           0        3.182773   -3.089203   -1.601509
     28          1           0       -1.645086   -0.174083    1.243912
     29          1           0       -1.709486    1.162451    0.069494
     30          1           0       -0.419444   -1.565393   -0.438669
     31          1           0       -0.580476   -0.273571   -1.642169
     32          1           0       -3.061354   -0.273114   -1.473301
     33          1           0       -3.066872   -1.570279   -0.248716
     34          1           0        0.929571   -0.031742    0.995016
     35          1           0       -6.118971    0.858565    1.777704
     36          1           0       -7.349933    0.129025    0.815367
     37          1           0       -3.989014    1.013266    0.755053
     38          1           0        2.503356   -0.027420   -1.402836
     39          1           0       -6.658124   -1.744127   -0.549363
     40          1           0       -5.140724   -1.579428   -1.356219
 ---------------------------------------------------------------------

 SCF Done:  E(RB3LYP) =  -1253.56800257     A.U. after    1 cycles

 Isotropic polarizability for W=    0.000000      153.88 Bohr**3.
 End of Minotr Frequency-dependent properties file   721 does not exist.

                     1                      2                      3
                     A                      A                      A
 Frequencies --    19.6893                23.1617                34.0311
 Red. masses --     4.7707                 3.8156                 4.5610
 Frc consts  --     0.0011                 0.0012                 0.0031
 IR Inten    --     1.0212                 0.3141                 1.2671

                     4                      5                      6
                     A                      A                      A
 Frequencies --    41.7656                55.4404                63.3163
 Red. masses --     4.9195                 4.1023                 4.2895
 Frc consts  --     0.0051                 0.0074                 0.0101
 IR Inten    --     8.1644                 3.2936                 2.7696

                     7                      8                      9
                     A                      A                      A
 Frequencies --    78.0209                90.6062               111.9800
 Red. masses --     3.7870                 1.8356                 1.8855
 Frc consts  --     0.0136                 0.0089                 0.0139
 IR Inten    --     2.0027                 2.0871                 1.4797

                    10                     11                     12
                     A                      A                      A
 Frequencies --   127.1863               156.8755               162.4357
 Red. masses --     2.0922                 1.3558                 3.3902
 Frc consts  --     0.0199                 0.0197                 0.0527
 IR Inten    --     0.4358                 0.2645                 9.4243

                    13                     14                     15
                     A                      A                      A
 Frequencies --   168.7548               197.9323               204.6025
 Red. masses --     3.7522                 2.4243                 2.7723
 Frc consts  --     0.0630                 0.0560                 0.0684
 IR Inten    --     1.8952                 3.6483                 2.8074

                    16                     17                     18
                     A                      A                      A
 Frequencies --   208.0093               226.0108               235.3411
 Red. masses --     1.4171                 1.2713                 2.2126
 Frc consts  --     0.0361                 0.0383                 0.0722
 IR Inten    --     0.8273                61.7723                 9.3651

                    19                     20                     21
                     A                      A                      A
 Frequencies --   245.6019               262.2934               284.1641
 Red. masses --     3.1723                 2.4191                 3.2988
 Frc consts  --     0.1127                 0.0981                 0.1569
 IR Inten    --     3.6097                 1.8468                11.0226

                    22                     23                     24
                     A                      A                      A
 Frequencies --   304.8603               318.3692               324.6521
 Red. masses --     2.3598                 4.0869                 1.4072
 Frc consts  --     0.1292                 0.2441                 0.0874
 IR Inten    --    49.1310                 7.0583               117.0078

                    25                     26                     27
                     A                      A                      A
 Frequencies --   352.8815               364.2587               399.3298
 Red. masses --     1.1732                 2.7605                 4.4056
 Frc consts  --     0.0861                 0.2158                 0.4139
 IR Inten    --   254.7277                26.2376                14.4277

                    28                     29                     30
                     A                      A                      A
 Frequencies --   410.6139               426.4331               482.7362
 Red. masses --     2.5127                 2.7674                 3.4139
 Frc consts  --     0.2496                 0.2965                 0.4687
 IR Inten    --    20.6775                 4.0462                 3.4119

                    31                     32                     33
                     A                      A                      A
 Frequencies --   494.8072               498.3163               526.1517
 Red. masses --     4.0340                 4.5672                 2.4343
 Frc consts  --     0.5819                 0.6682                 0.3971
 IR Inten    --    42.6758                61.4083                80.1083

                    34                     35                     36
                     A                      A                      A
 Frequencies --   537.4827               547.2642               570.3237
 Red. masses --     1.2616                 1.6550                 1.8474
 Frc consts  --     0.2147                 0.2920                 0.3540
 IR Inten    --    32.0181                 8.3027                55.5834

                    37                     38                     39
                     A                      A                      A
 Frequencies --   595.7413               632.9767               701.0601
 Red. masses --     2.9638                 3.9730                 5.6862
 Frc consts  --     0.6198                 0.9379                 1.6466
 IR Inten    --     5.4190                32.8058                 1.8496

                    40                     41                     42
                     A                      A                      A
 Frequencies --   703.3395               727.4483               754.4039
 Red. masses --     4.3026                 2.6531                 2.2187
 Frc consts  --     1.2540                 0.8272                 0.7440
 IR Inten    --     5.3512                 2.7592                45.9173

                    43                     44                     45
                     A                      A                      A
 Frequencies --   799.8593               868.4590               922.6526
 Red. masses --     1.9111                 2.3881                 1.9579
 Frc consts  --     0.7204                 1.0612                 0.9820
 IR Inten    --    36.2015               123.4680                30.0546

                    46                     47                     48
                     A                      A                      A
 Frequencies --   961.1174               978.7530               999.9930
 Red. masses --     3.1227                 3.6545                 1.3758
 Frc consts  --     1.6996                 2.0626                 0.8106
 IR Inten    --     1.1167                 1.8512                30.0625

                    49                     50                     51
                     A                      A                      A
 Frequencies --  1000.5558              1031.6065              1059.7855
 Red. masses --     1.4446                 3.3980                 2.7694
 Frc consts  --     0.8521                 2.1306                 1.8326
 IR Inten    --    44.4170                16.2988                15.4050

                    52                     53                     54
                     A                      A                      A
 Frequencies --  1072.5363              1079.8410              1086.5139
 Red. masses --     1.6854                 2.0256                 1.4768
 Frc consts  --     1.1423                 1.3916                 1.0272
 IR Inten    --     0.4002                 3.9080                 2.5622

                    55                     56                     57
                     A                      A                      A
 Frequencies --  1093.2736              1115.6646              1122.7142
 Red. masses --     2.6457                 3.1343                 2.4541
 Frc consts  --     1.8632                 2.2986                 1.8226
 IR Inten    --    62.2097                10.4898                21.7758

                    58                     59                     60
                     A                      A                      A
 Frequencies --  1131.0626              1137.8676              1161.0150
 Red. masses --     4.0921                 1.2321                 2.1450
 Frc consts  --     3.0844                 0.9399                 1.7035
 IR Inten    --   160.1538                 2.5577                26.1083

                    61                     62                     63
                     A                      A                      A
 Frequencies --  1180.5246              1185.3322              1226.7617
 Red. masses --     1.6349                 1.6530                 1.2980
 Frc consts  --     1.3424                 1.3684                 1.1509
 IR Inten    --    24.4725                40.3395                14.6355

                    64                     65                     66
                     A                      A                      A
 Frequencies --  1276.6250              1287.4193              1300.6504
 Red. masses --     3.3777                 1.3303                 1.4341
 Frc consts  --     3.2434                 1.2991                 1.4294
 IR Inten    --    32.1594                17.2656                22.2329

                    67                     68                     69
                     A                      A                      A
 Frequencies --  1319.4329              1340.3735              1356.7016
 Red. masses --     2.6837                 1.5482                 1.1059
 Frc consts  --     2.7527                 1.6388                 1.1993
 IR Inten    --    91.4519                45.8015                26.9956

                    70                     71                     72
                     A                      A                      A
 Frequencies --  1372.6799              1384.0508              1405.9294
 Red. masses --     1.2772                 1.2086                 1.3358
 Frc consts  --     1.4179                 1.3641                 1.5557
 IR Inten    --     5.2220                 7.3324                39.1398

                    73                     74                     75
                     A                      A                      A
 Frequencies --  1425.1773              1444.2038              1453.7457
 Red. masses --     1.4809                 1.4969                 1.4443
 Frc consts  --     1.7722                 1.8395                 1.7984
 IR Inten    --     6.3292                54.4655                 3.3191

                    76                     77                     78
                     A                      A                      A
 Frequencies --  1454.8134              1463.0728              1479.7370
 Red. masses --     1.3067                 1.6431                 1.0492
 Frc consts  --     1.6295                 2.0723                 1.3535
 IR Inten    --    63.2390                48.2761                 4.9286

                    79                     80                     81
                     A                      A                      A
 Frequencies --  1485.7353              1499.3001              1506.0948
 Red. masses --     1.0704                 1.0996                 1.1532
 Frc consts  --     1.3921                 1.4564                 1.5413
 IR Inten    --     0.9089                16.9224                 4.7926

                    82                     83                     84
                     A                      A                      A
 Frequencies --  1522.6307              1527.3854              1530.8728
 Red. masses --     1.0466                 1.0812                 1.0693
 Frc consts  --     1.4297                 1.4862                 1.4765
 IR Inten    --    14.4166                14.3797                 9.5755

                    85                     86                     87
                     A                      A                      A
 Frequencies --  1535.4183              1543.5188              1562.7471
 Red. masses --     1.0437                 1.0933                 1.2575
 Frc consts  --     1.4497                 1.5346                 1.8094
 IR Inten    --    26.5329                19.4998                42.2664

                    88                     89                     90
                     A                      A                      A
 Frequencies --  1608.2713              1669.8747              1718.0136
 Red. masses --     1.4636                 1.6875                 2.5334
 Frc consts  --     2.2305                 2.7724                 4.4057
 IR Inten    --     2.4405               129.2487               610.0279

                    91                     92                     93
                     A                      A                      A
 Frequencies --  1718.5410              1733.3191              3041.0894
 Red. masses --     1.9586                 8.7336                 1.0603
 Frc consts  --     3.4081                15.4597                 5.7776
 IR Inten    --   408.8420               263.0824                 1.6740

                    94                     95                     96
                     A                      A                      A
 Frequencies --  3050.1928              3050.5899              3060.1117
 Red. masses --     1.0395                 1.0587                 1.0401
 Frc consts  --     5.6982                 5.8047                 5.7383
 IR Inten    --    30.9534                16.4706                40.3680

                    97                     98                     99
                     A                      A                      A
 Frequencies --  3061.3061              3088.7336              3089.2050
 Red. masses --     1.0639                 1.0294                 1.0859
 Frc consts  --     5.8743                 5.7861                 6.1059
 IR Inten    --    20.5345                 0.5614                 9.7080

                   100                    101                    102
                     A                      A                      A
 Frequencies --  3090.6859              3104.0992              3109.3426
 Red. masses --     1.1013                 1.1050                 1.0999
 Frc consts  --     6.1983                 6.2732                 6.2653
 IR Inten    --     5.5821                24.6910                 5.9359

                   103                    104                    105
                     A                      A                      A
 Frequencies --  3115.3365              3125.0681              3188.3504
 Red. masses --     1.1048                 1.1043                 1.1067
 Frc consts  --     6.3178                 6.3541                 6.6282
 IR Inten    --    12.4130                20.4733                 0.2677

                   106                    107                    108
                     A                      A                      A
 Frequencies --  3192.6049              3198.0205              3202.0634
 Red. masses --     1.0979                 1.1084                 1.0977
 Frc consts  --     6.5931                 6.6793                 6.6313
 IR Inten    --     3.6486                 0.9577                 1.2356

                   109                    110                    111
                     A                      A                      A
 Frequencies --  3551.6306              3596.3400              3602.3296
 Red. masses --     1.0762                 1.0713                 1.0492
 Frc consts  --     7.9981                 8.1634                 8.0218
 IR Inten    --    36.1598                99.9468               198.0705

                   112                    113                    114
                     A                      A                      A
 Frequencies --  3613.3931              3711.6291              3717.1883
 Red. masses --     1.0520                 1.1062                 1.1062
 Frc consts  --     8.0926                 8.9785                 9.0060
 IR Inten    --    55.7494                88.9943               116.4847

 - Thermochemistry -
 -------------------
 Temperature   298.150 Kelvin.  Pressure   1.00000 Atm.
 Atom     1 has atomic number  6 and mass  12.00000

 Molecular mass:   280.14434 amu.
 Principal axes and moments of inertia in atomic units:
                           1         2         3
     Eigenvalues --  3367.07111********************
           X            0.99993   0.01153  -0.00105
           Y           -0.01150   0.99961   0.02561
           Z            0.00134  -0.02560   0.99967
 This molecule is an asymmetric top.
 Rotational symmetry number  1.
 Warning -- assumption of classical behavior for rotation
           may cause significant error
 Rotational temperatures (Kelvin)      0.02572     0.00737     0.00615
 Rotational constants (GHZ):           0.53600     0.15354     0.12816
 Zero-point vibrational energy     899425.5 (Joules/Mol)
                                  214.96786 (Kcal/Mol)
 Warning -- explicit consideration of  37 degrees of freedom as
           vibrations may cause significant error
 Vibrational temperatures:     28.33    33.32    48.96    60.09    79.77
          (Kelvin)             91.10   112.25   130.36   161.11   182.99
                              225.71   233.71   242.80   284.78   294.38
                              299.28   325.18   338.60   353.37   377.38
                              408.85   438.63   458.06   467.10   507.72
                              524.09   574.55   590.78   613.54   694.55
                              711.92   716.97   757.01   773.32   787.39
                              820.57   857.14   910.71  1008.67  1011.95
                             1046.63  1085.42  1150.82  1249.52  1327.49
                             1382.83  1408.21  1438.77  1439.57  1484.25
                             1524.79  1543.14  1553.65  1563.25  1572.97
                             1605.19  1615.33  1627.34  1637.14  1670.44
                             1698.51  1705.43  1765.03  1836.78  1852.31
                             1871.34  1898.37  1928.50  1951.99  1974.98
                             1991.34  2022.82  2050.51  2077.88  2091.61
                             2093.15  2105.03  2129.01  2137.64  2157.16
                             2166.93  2190.72  2197.56  2202.58  2209.12
                             2220.78  2248.44  2313.94  2402.57  2471.84
                             2472.59  2493.86  4375.44  4388.54  4389.11
                             4402.81  4404.53  4443.99  4444.67  4446.80
                             4466.10  4473.64  4482.27  4496.27  4587.32
                             4593.44  4601.23  4607.05  5110.00  5174.32
                             5182.94  5198.86  5340.20  5348.20

 Zero-point correction=                           0.342573 (Hartree/Particle)
 Thermal correction to Energy=                    0.365272
 Thermal correction to Enthalpy=                  0.366216
 Thermal correction to Gibbs Free Energy=         0.288335
 Sum of electronic and zero-point Energies=          -1253.225429
 Sum of electronic and thermal Energies=             -1253.202731
 Sum of electronic and thermal Enthalpies=           -1253.201787
 Sum of electronic and thermal Free Energies=        -1253.279667

                     E (Thermal)             CV                S
                      KCal/Mol        Cal/Mol-Kelvin    Cal/Mol-Kelvin
 Total                  229.211             81.036            163.914
 Electronic               0.000              0.000              0.000
 Translational            0.889              2.981             42.789
 Rotational               0.889              2.981             34.676
 Vibrational            227.434             75.075             86.449
 Vibration     1          0.593              1.986              6.665
 Vibration     2          0.593              1.985              6.343
 Vibration     3          0.594              1.983              5.579
 Vibration     4          0.594              1.980              5.174
 Vibration     5          0.596              1.975              4.613
 Vibration     6          0.597              1.972              4.351
 Vibration     7          0.599              1.964              3.940
 Vibration     8          0.602              1.956              3.647
 Vibration     9          0.607              1.940              3.234
 Vibration    10          0.611              1.926              2.988
 Vibration    11          0.621              1.895              2.587
 Vibration    12          0.623              1.889              2.521
 Vibration    13          0.625              1.881              2.449
 Vibration    14          0.637              1.843              2.152
 Vibration    15          0.640              1.833              2.091
 Vibration    16          0.641              1.828              2.061
 Vibration    17          0.650              1.801              1.910
 Vibration    18          0.655              1.787              1.838
 Vibration    19          0.660              1.770              1.762
 Vibration    20          0.670              1.742              1.646
 Vibration    21          0.683              1.703              1.508
 Vibration    22          0.696              1.664              1.390
 Vibration    23          0.705              1.638              1.318
 Vibration    24          0.709              1.626              1.287
 Vibration    25          0.729              1.569              1.153
 Vibration    26          0.738              1.546              1.104
 Vibration    27          0.765              1.472              0.965
 Vibration    28          0.775              1.447              0.924
 Vibration    29          0.788              1.413              0.870
 Vibration    30          0.839              1.288              0.703
 Vibration    31          0.850              1.262              0.671
 Vibration    32          0.854              1.254              0.662
 Vibration    33          0.881              1.192              0.596
 Vibration    34          0.893              1.167              0.571
 Vibration    35          0.902              1.146              0.550
 Vibration    36          0.926              1.095              0.504
 Vibration    37          0.954              1.041              0.457

 Normal termination of Gaussian 09 at Fri Feb 16 23:57:20 2018.
