 Gaussian 09, Revision C.01,
 Gaussian 09:  AM64L-G09RevC.01 23-Sep-2011

 ----------------------------------------------------------------------
 #HF/6-31G* Geom=AllCheck Guess=Read Pop=(MK,ReadRadii) Integral=(Grid=
 UltraFine) iop(6/33=2)
 ----------------------------------------------------------------------

 Structure from the checkpoint file:  frag50-conf0.chk
 -----------------------------
 Optimization for frag50-conf0
 -----------------------------
 Charge =  1 Multiplicity = 1

                         Standard orientation:
 ---------------------------------------------------------------------
 Center     Atomic      Atomic             Coordinates (Angstroms)
 Number     Number       Type             X           Y           Z
 ---------------------------------------------------------------------
      1          6           0        0.910831    1.638972   -0.421244
      2          6           0       -5.424289   -0.288123    0.215082
      3          6           0        2.067153    3.772890   -0.297156
      4          6           0        2.912709    1.911312    1.083441
      5          6           0        2.898009   -3.153791   -0.550074
      6          6           0       -1.704404    0.072212    0.175331
      7          6           0       -0.481888   -0.478569   -0.571616
      8          6           0       -3.007608   -0.485855   -0.397552
      9          6           0        0.847077    0.124057   -0.085206
     10          7           0       -6.365906    0.255109    1.006066
     11          7           0       -4.163677    0.134144    0.282838
     12          7           0        1.976494   -0.577065   -0.729137
     13          7           0        1.916717    2.379308    0.120442
     14          7           0       -5.768596   -1.271828   -0.627808
     15          8           0        0.069115    2.115239   -1.187753
     16          8           0        2.499894   -1.589893    1.552699
     17          8           0        4.403715   -1.035134   -0.073888
     18         16           0        3.047932   -1.521366    0.192050
     19          1           0        1.912351    4.443269    0.556881
     20          1           0        1.332874    3.991983   -1.069956
     21          1           0        3.078126    3.937327   -0.687745
     22          1           0        2.594162    1.003878    1.593491
     23          1           0        3.056491    2.689151    1.840731
     24          1           0        3.877205    1.715060    0.600370
     25          1           0        3.583761   -3.811711   -0.010920
     26          1           0        1.869353   -3.500040   -0.440728
     27          1           0        3.182773   -3.089203   -1.601509
     28          1           0       -1.645086   -0.174083    1.243912
     29          1           0       -1.709486    1.162451    0.069494
     30          1           0       -0.419444   -1.565393   -0.438669
     31          1           0       -0.580476   -0.273571   -1.642169
     32          1           0       -3.061354   -0.273114   -1.473301
     33          1           0       -3.066872   -1.570279   -0.248716
     34          1           0        0.929571   -0.031742    0.995016
     35          1           0       -6.118971    0.858565    1.777704
     36          1           0       -7.349933    0.129025    0.815367
     37          1           0       -3.989014    1.013266    0.755053
     38          1           0        2.503356   -0.027420   -1.402836
     39          1           0       -6.658124   -1.744127   -0.549363
     40          1           0       -5.140724   -1.579428   -1.356219
 ---------------------------------------------------------------------

 SCF Done:  E(RHF) =  -1247.71087903     A.U. after   13 cycles

 The electronic state is 1-A.
 Alpha  occ. eigenvalues --  -92.29530 -20.64350 -20.63878 -20.61512 -15.78608
 Alpha  occ. eigenvalues --  -15.78347 -15.78135 -15.69656 -15.68108 -11.58980
 Alpha  occ. eigenvalues --  -11.44680 -11.42517 -11.38763 -11.35603 -11.35580
 Alpha  occ. eigenvalues --  -11.33968 -11.33876 -11.33075  -9.26651  -6.95250
 Alpha  occ. eigenvalues --   -6.95219  -6.95108  -1.53677  -1.52636  -1.46691
 Alpha  occ. eigenvalues --   -1.41967  -1.39078  -1.37792  -1.33143  -1.31612
 Alpha  occ. eigenvalues --   -1.20332  -1.13632  -1.10631  -1.05682  -1.04473
 Alpha  occ. eigenvalues --   -1.02894  -0.99867  -0.96611  -0.93228  -0.92218
 Alpha  occ. eigenvalues --   -0.91201  -0.86043  -0.85001  -0.84111  -0.81241
 Alpha  occ. eigenvalues --   -0.80994  -0.78553  -0.77425  -0.75962  -0.75584
 Alpha  occ. eigenvalues --   -0.74681  -0.73147  -0.72559  -0.71515  -0.69352
 Alpha  occ. eigenvalues --   -0.68389  -0.67795  -0.67060  -0.65055  -0.63951
 Alpha  occ. eigenvalues --   -0.63683  -0.63209  -0.61685  -0.61066  -0.60838
 Alpha  occ. eigenvalues --   -0.60727  -0.59661  -0.58813  -0.57435  -0.57320
 Alpha  occ. eigenvalues --   -0.55137  -0.54047  -0.51609  -0.49908  -0.45192
 Alpha virt. eigenvalues --    0.01510   0.03234   0.07283   0.07965   0.08788
 Alpha virt. eigenvalues --    0.09508   0.11259   0.13004   0.14239   0.15202
 Alpha virt. eigenvalues --    0.15805   0.16744   0.17318   0.17728   0.18163

 Mulliken atomic charges:
              1
     1  C    0.773278
     2  C    1.054042
     3  C   -0.304077
     4  C   -0.327547
     5  C   -0.695893
     6  C   -0.380083
     7  C   -0.288328
     8  C   -0.122260
     9  C   -0.079604
    10  N   -0.926085
    11  N   -0.819140
    12  N   -0.924596
    13  N   -0.663213
    14  N   -0.925041
    15  O   -0.647616
    16  O   -0.707220
    17  O   -0.677221
    18  S    1.627410
    19  H    0.178803
    20  H    0.236393
    21  H    0.185048
    22  H    0.210343
    23  H    0.195779
    24  H    0.214021
    25  H    0.250102
    26  H    0.219356
    27  H    0.235119
    28  H    0.188952
    29  H    0.224849
    30  H    0.174188
    31  H    0.205909
    32  H    0.214124
    33  H    0.206241
    34  H    0.257617
    35  H    0.442842
    36  H    0.441936
    37  H    0.431212
    38  H    0.423037
    39  H    0.443579
    40  H    0.453742
 Sum of Mulliken atomic charges =   1.00000

 Dipole moment (field-independent basis, Debye):
    X=            -22.0255    Y=             -2.3814    Z=             -0.0681  Tot=             22.1540
 Quadrupole moment (field-independent basis, Debye-Ang):
   XX=             22.6909   YY=            -93.3237   ZZ=           -113.3024
   XY=             12.9469   XZ=            -13.5574   YZ=             16.9962

 Normal termination of Gaussian 09 at Sat Feb 17 21:07:06 2018.
