 Gaussian 09, Revision C.01,
 Gaussian 09:  AM64L-G09RevC.01 23-Sep-2011

 --------------------------------------------------------------
 #B3LYP/6-31G* Integral=(Grid=UltraFine) freq Opt pop=none SCRF
 --------------------------------------------------------------

 99/9=1/99;
 ----------------------------
 Optimization for frag2-conf1
 ----------------------------
 Charge =  0 Multiplicity = 1

 SCF Done:  E(RB3LYP) =  -845.032980247     A.U. after   13 cycles
 SCF Done:  E(RB3LYP) =  -845.041092657     A.U. after   12 cycles
 SCF Done:  E(RB3LYP) =  -845.038674219     A.U. after   12 cycles
 SCF Done:  E(RB3LYP) =  -845.043174237     A.U. after   12 cycles
 SCF Done:  E(RB3LYP) =  -845.039229238     A.U. after   13 cycles
 SCF Done:  E(RB3LYP) =  -845.043949362     A.U. after   12 cycles
 SCF Done:  E(RB3LYP) =  -845.045508199     A.U. after   12 cycles
 SCF Done:  E(RB3LYP) =  -845.046330239     A.U. after   12 cycles
 SCF Done:  E(RB3LYP) =  -845.047401501     A.U. after   11 cycles
 SCF Done:  E(RB3LYP) =  -845.047585798     A.U. after   11 cycles
 SCF Done:  E(RB3LYP) =  -845.047860441     A.U. after   10 cycles
 SCF Done:  E(RB3LYP) =  -845.047867875     A.U. after    9 cycles
 SCF Done:  E(RB3LYP) =  -845.047869855     A.U. after    8 cycles
 SCF Done:  E(RB3LYP) =  -845.047870367     A.U. after    8 cycles
 SCF Done:  E(RB3LYP) =  -845.047870590     A.U. after    8 cycles
 SCF Done:  E(RB3LYP) =  -845.047870757     A.U. after    8 cycles
 SCF Done:  E(RB3LYP) =  -845.047870894     A.U. after    8 cycles
 SCF Done:  E(RB3LYP) =  -845.047870985     A.U. after    7 cycles
 SCF Done:  E(RB3LYP) =  -845.047871035     A.U. after    6 cycles
 Optimization completed.
    -- Stationary point found.
 Normal termination of Gaussian 09 at Sat Feb 17 20:20:24 2018.

 --------------------------------------------------------------------
 #N Geom=AllCheck Guess=TCheck SCRF=Check GenChk RB3LYP/6-31G(d) Freq
 --------------------------------------------------------------------

 Structure from the checkpoint file:  frag2-conf1.chk
 ----------------------------
 Optimization for frag2-conf1
 ----------------------------
 Charge =  0 Multiplicity = 1

                         Standard orientation:
 ---------------------------------------------------------------------
 Center     Atomic      Atomic             Coordinates (Angstroms)
 Number     Number       Type             X           Y           Z
 ---------------------------------------------------------------------
      1          6           0        0.659705    1.529385   -0.649636
      2          6           0        3.526808   -1.715171    0.338116
      3          6           0       -4.552680   -0.993091    0.815477
      4          6           0       -4.437654   -0.439210   -0.612043
      5          6           0       -3.387356   -0.511146    1.691235
      6          6           0       -3.075916   -0.774277   -1.238416
      7          6           0       -2.026243   -0.847199    1.060437
      8          6           0       -1.898416   -0.285688   -0.370462
      9          6           0        0.821938    3.790270    0.218788
     10          6           0        1.284337    1.871906    1.744593
     11          6           0        2.382464   -1.882645   -0.716458
     12          6           0       -0.563234   -0.654171   -1.047683
     13          6           0        0.670406    0.002662   -0.417897
     14          7           0        0.896789    2.341168    0.407064
     15          7           0        1.938215   -0.492576   -1.074630
     16          8           0        3.963521   -2.756434    0.848902
     17          8           0        0.453343    1.932632   -1.800280
     18          8           0        3.875000   -0.506644    0.526879
     19          1           0       -5.510831   -0.698625    1.262309
     20          1           0       -4.547146   -2.092566    0.778869
     21          1           0       -5.245191   -0.833958   -1.241607
     22          1           0       -4.564855    0.653143   -0.587918
     23          1           0       -3.462374    0.577822    1.826958
     24          1           0       -3.452384   -0.955654    2.692371
     25          1           0       -2.993642   -1.864360   -1.367754
     26          1           0       -3.002706   -0.333894   -2.241449
     27          1           0       -1.223753   -0.465815    1.705010
     28          1           0       -1.902162   -1.940239    1.022870
     29          1           0       -1.966347    0.812033   -0.314314
     30          1           0        0.161754    4.225766    0.975729
     31          1           0        0.428323    3.996369   -0.774701
     32          1           0        1.816294    4.240779    0.316396
     33          1           0        1.690601    2.723678    2.292346
     34          1           0        2.066678    1.110751    1.687966
     35          1           0        0.426842    1.484336    2.305917
     36          1           0        1.549649   -2.458184   -0.313803
     37          1           0        2.752829   -2.377202   -1.615861
     38          1           0       -0.440979   -1.743943   -1.024588
     39          1           0       -0.597265   -0.350088   -2.100082
     40          1           0        0.768208   -0.267239    0.631980
     41          1           0        2.760977    0.038673   -0.660449
     42          1           0        1.882589   -0.327908   -2.083543
 ---------------------------------------------------------------------

 SCF Done:  E(RB3LYP) =  -845.047871035     A.U. after    1 cycles

 Isotropic polarizability for W=    0.000000      198.52 Bohr**3.
 End of Minotr Frequency-dependent properties file   721 does not exist.

                     1                      2                      3
                     A                      A                      A
 Frequencies --    18.8249                28.7870                33.5433
 Red. masses --     4.3251                 4.3508                 3.8926
 Frc consts  --     0.0009                 0.0021                 0.0026
 IR Inten    --     2.4099                 8.9074                13.3770

                     4                      5                      6
                     A                      A                      A
 Frequencies --    41.4598                54.3237                68.0028
 Red. masses --     4.3392                 3.3171                 3.1389
 Frc consts  --     0.0044                 0.0058                 0.0086
 IR Inten    --    18.8209                 8.0947                 7.9768

                     7                      8                      9
                     A                      A                      A
 Frequencies --    91.3803               100.1283               114.0631
 Red. masses --     4.6073                 2.2590                 1.7338
 Frc consts  --     0.0227                 0.0133                 0.0133
 IR Inten    --     1.6993                 1.1862                 2.4419

                    10                     11                     12
                     A                      A                      A
 Frequencies --   142.7342               156.6811               183.0101
 Red. masses --     2.3453                 1.5805                 3.7441
 Frc consts  --     0.0282                 0.0229                 0.0739
 IR Inten    --     1.4761                 0.2912                 7.1419

                    13                     14                     15
                     A                      A                      A
 Frequencies --   207.8833               228.4318               244.0553
 Red. masses --     2.9777                 1.8932                 2.3828
 Frc consts  --     0.0758                 0.0582                 0.0836
 IR Inten    --     1.6280                 0.5432                 1.4887

                    16                     17                     18
                     A                      A                      A
 Frequencies --   270.3432               296.8122               314.6849
 Red. masses --     3.7265                 2.4739                 3.2981
 Frc consts  --     0.1605                 0.1284                 0.1924
 IR Inten    --    21.6894                 2.1408                37.4977

                    19                     20                     21
                     A                      A                      A
 Frequencies --   329.3389               362.6938               386.4402
 Red. masses --     1.8154                 2.9600                 3.6257
 Frc consts  --     0.1160                 0.2294                 0.3190
 IR Inten    --     0.1585                59.2426                28.0541

                    22                     23                     24
                     A                      A                      A
 Frequencies --   410.2051               441.8925               446.6144
 Red. masses --     2.2675                 2.2260                 2.8130
 Frc consts  --     0.2248                 0.2561                 0.3306
 IR Inten    --     4.8986                 4.8657                 0.3204

                    25                     26                     27
                     A                      A                      A
 Frequencies --   470.3981               506.1616               519.2018
 Red. masses --     2.9717                 2.7968                 3.5391
 Frc consts  --     0.3874                 0.4222                 0.5621
 IR Inten    --     2.9659                15.2191                61.1664

                    28                     29                     30
                     A                      A                      A
 Frequencies --   561.1427               589.4505               628.5263
 Red. masses --     2.3325                 2.1480                 4.2425
 Frc consts  --     0.4327                 0.4397                 0.9875
 IR Inten    --     3.2271                12.2228                15.4640

                    31                     32                     33
                     A                      A                      A
 Frequencies --   679.9690               744.5670               772.0767
 Red. masses --     6.1238                 4.0682                 3.7438
 Frc consts  --     1.6682                 1.3288                 1.3149
 IR Inten    --     8.1920                 7.1578                 6.0713

                    34                     35                     36
                     A                      A                      A
 Frequencies --   794.9469               800.9293               849.8666
 Red. masses --     2.2765                 1.5932                 3.3256
 Frc consts  --     0.8476                 0.6022                 1.4152
 IR Inten    --     4.6275                 0.6256                92.9387

                    37                     38                     39
                     A                      A                      A
 Frequencies --   858.1936               875.5588               899.3027
 Red. masses --     2.5797                 1.9379                 2.3332
 Frc consts  --     1.1194                 0.8753                 1.1118
 IR Inten    --    43.1918                 2.1617                 0.7087

                    40                     41                     42
                     A                      A                      A
 Frequencies --   924.0955               936.0460               945.0444
 Red. masses --     1.9467                 1.9444                 2.1776
 Frc consts  --     0.9794                 1.0038                 1.1459
 IR Inten    --     7.4641                 1.7582                 9.6984

                    43                     44                     45
                     A                      A                      A
 Frequencies --   955.1316               984.8610               992.6325
 Red. masses --     2.0719                 2.3296                 2.2771
 Frc consts  --     1.1136                 1.3313                 1.3219
 IR Inten    --    24.6806                11.4263                 1.5557

                    46                     47                     48
                     A                      A                      A
 Frequencies --  1022.7233              1041.3036              1046.3413
 Red. masses --     3.2786                 2.6130                 1.8280
 Frc consts  --     2.0205                 1.6693                 1.1791
 IR Inten    --    30.4352                 9.1699                 0.3587

                    49                     50                     51
                     A                      A                      A
 Frequencies --  1063.2141              1088.9579              1091.1842
 Red. masses --     1.7589                 1.5206                 1.4271
 Frc consts  --     1.1715                 1.0624                 1.0011
 IR Inten    --     4.5147                25.2770                16.7916

                    52                     53                     54
                     A                      A                      A
 Frequencies --  1100.5055              1110.1407              1125.7866
 Red. masses --     1.6632                 2.9163                 1.9662
 Frc consts  --     1.1868                 2.1176                 1.4682
 IR Inten    --     0.1831                13.8812                45.9166

                    55                     56                     57
                     A                      A                      A
 Frequencies --  1136.2491              1161.0261              1175.2949
 Red. masses --     1.2331                 1.6460                 1.4699
 Frc consts  --     0.9380                 1.3073                 1.1962
 IR Inten    --     1.6556                16.5616                20.2593

                    58                     59                     60
                     A                      A                      A
 Frequencies --  1178.2498              1209.5840              1231.4225
 Red. masses --     1.6951                 1.4187                 1.2596
 Frc consts  --     1.3865                 1.2230                 1.1254
 IR Inten    --    55.8643                 0.5005                44.5238

                    61                     62                     63
                     A                      A                      A
 Frequencies --  1241.2052              1277.1355              1284.1343
 Red. masses --     1.3198                 1.2774                 3.7597
 Frc consts  --     1.1980                 1.2276                 3.6528
 IR Inten    --     6.0578                14.2646                46.7035

                    64                     65                     66
                     A                      A                      A
 Frequencies --  1299.4913              1300.8365              1312.4335
 Red. masses --     1.2461                 1.2466                 1.3336
 Frc consts  --     1.2398                 1.2429                 1.3534
 IR Inten    --     3.7364                 2.0025                 4.6403

                    67                     68                     69
                     A                      A                      A
 Frequencies --  1327.6108              1344.0487              1354.0954
 Red. masses --     1.4175                 1.4142                 1.6148
 Frc consts  --     1.4720                 1.5051                 1.7444
 IR Inten    --    34.1558                37.6821                44.5128

                    70                     71                     72
                     A                      A                      A
 Frequencies --  1361.9561              1377.0846              1384.9460
 Red. masses --     2.3685                 1.3284                 1.3534
 Frc consts  --     2.5885                 1.4842                 1.5294
 IR Inten    --   148.8518                 8.8476                16.0967

                    73                     74                     75
                     A                      A                      A
 Frequencies --  1391.6936              1397.4729              1400.3932
 Red. masses --     1.3711                 1.4921                 1.5068
 Frc consts  --     1.5646                 1.7169                 1.7410
 IR Inten    --     6.1123                 0.7065                 6.7082

                    76                     77                     78
                     A                      A                      A
 Frequencies --  1413.3938              1420.7995              1430.0022
 Red. masses --     1.3835                 1.4979                 1.5214
 Frc consts  --     1.6283                 1.7816                 1.8330
 IR Inten    --    13.7175                 8.7010               184.4593

                    79                     80                     81
                     A                      A                      A
 Frequencies --  1451.5162              1463.7916              1470.5263
 Red. masses --     1.1923                 1.2228                 1.6222
 Frc consts  --     1.4800                 1.5437                 2.0668
 IR Inten    --    24.6866               335.0072               127.7659

                    82                     83                     84
                     A                      A                      A
 Frequencies --  1491.5572              1496.3393              1502.5282
 Red. masses --     1.0797                 1.1680                 1.1078
 Frc consts  --     1.4153                 1.5408                 1.4735
 IR Inten    --    14.5520                44.9939                11.2688

                    85                     86                     87
                     A                      A                      A
 Frequencies --  1506.4195              1509.7474              1511.3413
 Red. masses --     1.0934                 1.0925                 1.0988
 Frc consts  --     1.4619                 1.4672                 1.4787
 IR Inten    --     3.6597                 2.0085                 2.3276

                    88                     89                     90
                     A                      A                      A
 Frequencies --  1513.4255              1515.3800              1525.6459
 Red. masses --     1.0845                 1.0726                 1.0579
 Frc consts  --     1.4636                 1.4512                 1.4508
 IR Inten    --    17.2056                 9.6406                 3.5342

                    91                     92                     93
                     A                      A                      A
 Frequencies --  1528.4064              1534.2404              1551.2424
 Red. masses --     1.1000                 1.0623                 1.3385
 Frc consts  --     1.5140                 1.4732                 1.8977
 IR Inten    --     0.5375                 5.8849                92.8211

                    94                     95                     96
                     A                      A                      A
 Frequencies --  1616.4984              1722.8886              1771.7290
 Red. masses --     1.0991                 8.0962                 6.8860
 Frc consts  --     1.6922                14.1595                12.7354
 IR Inten    --    81.8566               544.7800               513.2620

                    97                     98                     99
                     A                      A                      A
 Frequencies --  2863.6783              3004.7946              3014.1034
 Red. masses --     1.0739                 1.0800                 1.0659
 Frc consts  --     5.1887                 5.7452                 5.7051
 IR Inten    --   622.6256                 9.8206                37.0802

                   100                    101                    102
                     A                      A                      A
 Frequencies --  3020.1343              3020.9935              3022.2500
 Red. masses --     1.0668                 1.0710                 1.0632
 Frc consts  --     5.7331                 5.7586                 5.7215
 IR Inten    --    50.6730                21.8024                13.5407

                   103                    104                    105
                     A                      A                      A
 Frequencies --  3025.1377              3055.8885              3056.5846
 Red. masses --     1.0605                 1.0587                 1.0380
 Frc consts  --     5.7180                 5.8249                 5.7137
 IR Inten    --   110.0022                50.3545                39.6901

                   106                    107                    108
                     A                      A                      A
 Frequencies --  3062.0646              3063.2576              3065.2499
 Red. masses --     1.0387                 1.0959                 1.0991
 Frc consts  --     5.7381                 6.0591                 6.0847
 IR Inten    --    41.4577               144.8129                95.8774

                   109                    110                    111
                     A                      A                      A
 Frequencies --  3069.0295              3069.7030              3073.8105
 Red. masses --     1.0970                 1.0946                 1.1045
 Frc consts  --     6.0880                 6.0769                 6.1484
 IR Inten    --    38.4180                55.6213               184.8100

                   112                    113                    114
                     A                      A                      A
 Frequencies --  3100.1727              3117.0592              3129.0720
 Red. masses --     1.1034                 1.1047                 1.0604
 Frc consts  --     6.2481                 6.3241                 6.1173
 IR Inten    --    32.3499                34.3767                11.5133

                   115                    116                    117
                     A                      A                      A
 Frequencies --  3134.4783              3163.1927              3172.6596
 Red. masses --     1.1037                 1.1007                 1.0880
 Frc consts  --     6.3889                 6.4889                 6.4526
 IR Inten    --    10.7065                13.3913                 7.8373

                   118                    119                    120
                     A                      A                      A
 Frequencies --  3190.0527              3199.1539              3475.6136
 Red. masses --     1.1084                 1.0992                 1.0772
 Frc consts  --     6.6459                 6.6282                 7.6669
 IR Inten    --     4.2615                 3.3316                65.9230

 - Thermochemistry -
 -------------------
 Temperature   298.150 Kelvin.  Pressure   1.00000 Atm.
 Atom     1 has atomic number  6 and mass  12.00000

 Molecular mass:   256.17869 amu.
 Principal axes and moments of inertia in atomic units:
                           1         2         3
     Eigenvalues --  3585.227457556.865909105.04983
           X            0.99956   0.02934  -0.00523
           Y           -0.02910   0.99871   0.04172
           Z            0.00644  -0.04155   0.99912
 This molecule is an asymmetric top.
 Rotational symmetry number  1.
 Warning -- assumption of classical behavior for rotation
           may cause significant error
 Rotational temperatures (Kelvin)      0.02416     0.01146     0.00951
 Rotational constants (GHZ):           0.50338     0.23882     0.19821
 Zero-point vibrational energy     982208.9 (Joules/Mol)
                                  234.75357 (Kcal/Mol)
 Warning -- explicit consideration of  29 degrees of freedom as
           vibrations may cause significant error
 Vibrational temperatures:     27.08    41.42    48.26    59.65    78.16
          (Kelvin)             97.84   131.48   144.06   164.11   205.36
                              225.43   263.31   299.10   328.66   351.14
                              388.96   427.05   452.76   473.84   521.83
                              556.00   590.19   635.78   642.58   676.80
                              728.25   747.01   807.36   848.09   904.31
                              978.32  1071.26  1110.84  1143.75  1152.36
                             1222.77  1234.75  1259.73  1293.89  1329.57
                             1346.76  1359.71  1374.22  1416.99  1428.17
                             1471.47  1498.20  1505.45  1529.73  1566.77
                             1569.97  1583.38  1597.24  1619.75  1634.81
                             1670.46  1690.99  1695.24  1740.32  1771.74
                             1785.82  1837.51  1847.58  1869.68  1871.61
                             1888.30  1910.13  1933.78  1948.24  1959.55
                             1981.32  1992.63  2002.33  2010.65  2014.85
                             2033.56  2044.21  2057.45  2088.41  2106.07
                             2115.76  2146.02  2152.90  2161.80  2167.40
                             2172.19  2174.48  2177.48  2180.29  2195.06
                             2199.03  2207.43  2231.89  2325.78  2478.85
                             2549.12  4120.19  4323.22  4336.62  4345.29
                             4346.53  4348.34  4352.49  4396.74  4397.74
                             4405.62  4407.34  4410.21  4415.64  4416.61
                             4422.52  4460.45  4484.75  4502.03  4509.81
                             4551.12  4564.74  4589.77  4602.86  5000.63

 Zero-point correction=                           0.374104 (Hartree/Particle)
 Thermal correction to Energy=                    0.393612
 Thermal correction to Enthalpy=                  0.394556
 Thermal correction to Gibbs Free Energy=         0.323241
 Sum of electronic and zero-point Energies=           -844.673767
 Sum of electronic and thermal Energies=              -844.654259
 Sum of electronic and thermal Enthalpies=            -844.653315
 Sum of electronic and thermal Free Energies=         -844.724630

                     E (Thermal)             CV                S
                      KCal/Mol        Cal/Mol-Kelvin    Cal/Mol-Kelvin
 Total                  246.995             71.452            150.094
 Electronic               0.000              0.000              0.000
 Translational            0.889              2.981             42.522
 Rotational               0.889              2.981             33.866
 Vibrational            245.218             65.490             73.705
 Vibration     1          0.593              1.986              6.754
 Vibration     2          0.593              1.984              5.911
 Vibration     3          0.594              1.983              5.608
 Vibration     4          0.594              1.981              5.188
 Vibration     5          0.596              1.976              4.653
 Vibration     6          0.598              1.969              4.210
 Vibration     7          0.602              1.955              3.630
 Vibration     8          0.604              1.949              3.452
 Vibration     9          0.607              1.938              3.199
 Vibration    10          0.616              1.910              2.767
 Vibration    11          0.620              1.895              2.589
 Vibration    12          0.631              1.863              2.297
 Vibration    13          0.641              1.829              2.062
 Vibration    14          0.651              1.798              1.891
 Vibration    15          0.659              1.773              1.773
 Vibration    16          0.674              1.728              1.594
 Vibration    17          0.690              1.680              1.435
 Vibration    18          0.702              1.646              1.338
 Vibration    19          0.712              1.617              1.263
 Vibration    20          0.737              1.549              1.111
 Vibration    21          0.755              1.499              1.014
 Vibration    22          0.774              1.448              0.926
 Vibration    23          0.802              1.379              0.821
 Vibration    24          0.806              1.368              0.806
 Vibration    25          0.827              1.316              0.736
 Vibration    26          0.861              1.236              0.643
 Vibration    27          0.874              1.207              0.612
 Vibration    28          0.917              1.115              0.522
 Vibration    29          0.947              1.054              0.468

 Normal termination of Gaussian 09 at Sat Feb 17 20:56:09 2018.
