 Gaussian 09, Revision C.01,
 Gaussian 09:  AM64L-G09RevC.01 23-Sep-2011

 ----------------------------------------------------------------------
 #HF/6-31G* Geom=AllCheck Guess=Read Pop=(MK,ReadRadii) Integral=(Grid=
 UltraFine) iop(6/33=2)
 ----------------------------------------------------------------------

 Structure from the checkpoint file:  frag2-conf1.chk
 ----------------------------
 Optimization for frag2-conf1
 ----------------------------
 Charge =  0 Multiplicity = 1

                         Standard orientation:
 ---------------------------------------------------------------------
 Center     Atomic      Atomic             Coordinates (Angstroms)
 Number     Number       Type             X           Y           Z
 ---------------------------------------------------------------------
      1          6           0        0.659705    1.529385   -0.649636
      2          6           0        3.526808   -1.715171    0.338116
      3          6           0       -4.552680   -0.993091    0.815477
      4          6           0       -4.437654   -0.439210   -0.612043
      5          6           0       -3.387356   -0.511146    1.691235
      6          6           0       -3.075916   -0.774277   -1.238416
      7          6           0       -2.026243   -0.847199    1.060437
      8          6           0       -1.898416   -0.285688   -0.370462
      9          6           0        0.821938    3.790270    0.218788
     10          6           0        1.284337    1.871906    1.744593
     11          6           0        2.382464   -1.882645   -0.716458
     12          6           0       -0.563234   -0.654171   -1.047683
     13          6           0        0.670406    0.002662   -0.417897
     14          7           0        0.896789    2.341168    0.407064
     15          7           0        1.938215   -0.492576   -1.074630
     16          8           0        3.963521   -2.756434    0.848902
     17          8           0        0.453343    1.932632   -1.800280
     18          8           0        3.875000   -0.506644    0.526879
     19          1           0       -5.510831   -0.698625    1.262309
     20          1           0       -4.547146   -2.092566    0.778869
     21          1           0       -5.245191   -0.833958   -1.241607
     22          1           0       -4.564855    0.653143   -0.587918
     23          1           0       -3.462374    0.577822    1.826958
     24          1           0       -3.452384   -0.955654    2.692371
     25          1           0       -2.993642   -1.864360   -1.367754
     26          1           0       -3.002706   -0.333894   -2.241449
     27          1           0       -1.223753   -0.465815    1.705010
     28          1           0       -1.902162   -1.940239    1.022870
     29          1           0       -1.966347    0.812033   -0.314314
     30          1           0        0.161754    4.225766    0.975729
     31          1           0        0.428323    3.996369   -0.774701
     32          1           0        1.816294    4.240779    0.316396
     33          1           0        1.690601    2.723678    2.292346
     34          1           0        2.066678    1.110751    1.687966
     35          1           0        0.426842    1.484336    2.305917
     36          1           0        1.549649   -2.458184   -0.313803
     37          1           0        2.752829   -2.377202   -1.615861
     38          1           0       -0.440979   -1.743943   -1.024588
     39          1           0       -0.597265   -0.350088   -2.100082
     40          1           0        0.768208   -0.267239    0.631980
     41          1           0        2.760977    0.038673   -0.660449
     42          1           0        1.882589   -0.327908   -2.083543
 ---------------------------------------------------------------------

 SCF Done:  E(RHF) =  -839.733639599     A.U. after   13 cycles

 The electronic state is 1-A.
 Alpha  occ. eigenvalues --  -20.55535 -20.48724 -20.46825 -15.70006 -15.62687
 Alpha  occ. eigenvalues --  -11.38824 -11.33424 -11.32484 -11.29537 -11.28699
 Alpha  occ. eigenvalues --  -11.27829 -11.26669 -11.25760 -11.24455 -11.24007
 Alpha  occ. eigenvalues --  -11.23785 -11.23526 -11.23387  -1.40819  -1.36045
 Alpha  occ. eigenvalues --   -1.31732  -1.27157  -1.24741  -1.14816  -1.09179
 Alpha  occ. eigenvalues --   -1.03127  -1.02137  -0.99385  -0.97469  -0.96910
 Alpha  occ. eigenvalues --   -0.90156  -0.85139  -0.83225  -0.79505  -0.78287
 Alpha  occ. eigenvalues --   -0.76829  -0.74296  -0.70558  -0.69556  -0.68199
 Alpha  occ. eigenvalues --   -0.66399  -0.66125  -0.65358  -0.64172  -0.62187
 Alpha  occ. eigenvalues --   -0.61758  -0.60751  -0.59791  -0.58826  -0.58630
 Alpha  occ. eigenvalues --   -0.58575  -0.57066  -0.56452  -0.55122  -0.54943
 Alpha  occ. eigenvalues --   -0.54512  -0.54350  -0.52939  -0.51328  -0.50855
 Alpha  occ. eigenvalues --   -0.50170  -0.49521  -0.47084  -0.45280  -0.44643
 Alpha  occ. eigenvalues --   -0.44500  -0.39704  -0.39672  -0.37143  -0.36497
 Alpha virt. eigenvalues --    0.13834   0.17922   0.18638   0.20479   0.21728
 Alpha virt. eigenvalues --    0.23017   0.24067   0.24744   0.25266   0.26406
 Alpha virt. eigenvalues --    0.27339   0.27862   0.28281   0.28592   0.28760

 Mulliken atomic charges:
              1
     1  C    0.797503
     2  C    0.793630
     3  C   -0.312544
     4  C   -0.314627
     5  C   -0.312329
     6  C   -0.311035
     7  C   -0.317419
     8  C   -0.179251
     9  C   -0.301930
    10  C   -0.337254
    11  C   -0.280203
    12  C   -0.321038
    13  C   -0.101359
    14  N   -0.662502
    15  N   -0.811160
    16  O   -0.669657
    17  O   -0.651159
    18  O   -0.761390
    19  H    0.169450
    20  H    0.155906
    21  H    0.170276
    22  H    0.157329
    23  H    0.154310
    24  H    0.172052
    25  H    0.154035
    26  H    0.173982
    27  H    0.157048
    28  H    0.159602
    29  H    0.174769
    30  H    0.176321
    31  H    0.235663
    32  H    0.185330
    33  H    0.204988
    34  H    0.243264
    35  H    0.180402
    36  H    0.224672
    37  H    0.228684
    38  H    0.181700
    39  H    0.208335
    40  H    0.252494
    41  H    0.495043
    42  H    0.438071
 Sum of Mulliken atomic charges =   0.00000

 Dipole moment (field-independent basis, Debye):
    X=             -8.3149    Y=              3.6633    Z=             -2.1631  Tot=              9.3400
 Quadrupole moment (field-independent basis, Debye-Ang):
   XX=           -151.4425   YY=           -116.7434   ZZ=           -111.0192
   XY=             21.9080   XZ=            -17.1838   YZ=             17.8030

 Normal termination of Gaussian 09 at Sun Feb 18 17:08:46 2018.
