 Gaussian 09, Revision C.01,
 Gaussian 09:  AM64L-G09RevC.01 23-Sep-2011

 ---------------------------------------------------------
 #B3LYP/6-31G* Integral=(Grid=UltraFine) freq Opt pop=none
 ---------------------------------------------------------

 99/9=1/99;
 -----------------------------
 Optimization for frag41-conf2
 -----------------------------
 Charge =  1 Multiplicity = 1

 SCF Done:  E(RB3LYP) =  -864.844274657     A.U. after   15 cycles
 SCF Done:  E(RB3LYP) =  -864.855688474     A.U. after   13 cycles
 SCF Done:  E(RB3LYP) =  -864.859124762     A.U. after   13 cycles
 SCF Done:  E(RB3LYP) =  -864.861974126     A.U. after   13 cycles
 SCF Done:  E(RB3LYP) =  -864.865609686     A.U. after   13 cycles
 SCF Done:  E(RB3LYP) =  -864.869067075     A.U. after   14 cycles
 SCF Done:  E(RB3LYP) =  -864.872141663     A.U. after   13 cycles
 SCF Done:  E(RB3LYP) =  -864.873550091     A.U. after   13 cycles
 SCF Done:  E(RB3LYP) =  -864.874783801     A.U. after   13 cycles
 SCF Done:  E(RB3LYP) =  -864.875664065     A.U. after   12 cycles
 SCF Done:  E(RB3LYP) =  -864.879290791     A.U. after    9 cycles
 SCF Done:  E(RB3LYP) =  -864.879293761     A.U. after    9 cycles
 SCF Done:  E(RB3LYP) =  -864.879294622     A.U. after    7 cycles
 SCF Done:  E(RB3LYP) =  -864.879295292     A.U. after    7 cycles
 SCF Done:  E(RB3LYP) =  -864.879296125     A.U. after    7 cycles
 SCF Done:  E(RB3LYP) =  -864.879297352     A.U. after    8 cycles
 SCF Done:  E(RB3LYP) =  -864.879298353     A.U. after    8 cycles
 SCF Done:  E(RB3LYP) =  -864.879298576     A.U. after    7 cycles
 SCF Done:  E(RB3LYP) =  -864.879298604     A.U. after    6 cycles
 Optimization completed.
    -- Stationary point found.
 Normal termination of Gaussian 09 at Fri Feb 16 23:28:54 2018.

 --------------------------------------------------------------------
 #N Geom=AllCheck Guess=TCheck SCRF=Check GenChk RB3LYP/6-31G(d) Freq
 --------------------------------------------------------------------

 Structure from the checkpoint file:  frag41-conf2.chk
 -----------------------------
 Optimization for frag41-conf2
 -----------------------------
 Charge =  1 Multiplicity = 1

                         Standard orientation:
 ---------------------------------------------------------------------
 Center     Atomic      Atomic             Coordinates (Angstroms)
 Number     Number       Type             X           Y           Z
 ---------------------------------------------------------------------
      1          6           0        3.050243   -0.499457   -0.137519
      2          6           0       -0.981666    1.723487   -0.476856
      3          6           0       -3.493429   -2.978609    0.349546
      4          6           0       -2.033261   -3.291603   -0.002171
      5          6           0       -3.936176   -1.642587   -0.261112
      6          6           0       -1.096008   -2.138141    0.393225
      7          6           0       -2.998220   -0.491256    0.140636
      8          6           0       -1.537923   -0.802942   -0.249856
      9          6           0        5.318003   -1.314844    0.135438
     10          6           0        4.826381    1.058712    0.643608
     11          6           0       -2.127934    3.854949   -0.353295
     12          6           0       -2.095305    2.429730    1.657974
     13          6           0        2.011290    0.650924   -0.065078
     14          6           0       -0.550384    0.345862    0.097409
     15          7           0        4.322213   -0.239635    0.202753
     16          7           0       -1.686628    2.598585    0.265376
     17          7           0        0.748057    0.082557   -0.629727
     18          8           0        2.630342   -1.604817   -0.503166
     19          8           0       -0.633428    1.940837   -1.647365
     20          1           0       -4.146466   -3.786935    0.002234
     21          1           0       -3.604159   -2.935330    1.442626
     22          1           0       -1.705139   -4.210939    0.495536
     23          1           0       -1.944615   -3.473340   -1.082521
     24          1           0       -3.952972   -1.725211   -1.356973
     25          1           0       -4.958923   -1.399037    0.047875
     26          1           0       -1.107599   -2.018076    1.487159
     27          1           0       -0.065046   -2.404651    0.123915
     28          1           0       -3.332831    0.438130   -0.333984
     29          1           0       -3.060610   -0.342562    1.228133
     30          1           0       -1.512702   -0.908276   -1.345956
     31          1           0        6.122055   -1.028083   -0.550465
     32          1           0        4.837244   -2.223553   -0.221223
     33          1           0        5.743534   -1.487329    1.129685
     34          1           0        5.295852    0.957047    1.628106
     35          1           0        4.029372    1.798076    0.721364
     36          1           0        5.577943    1.430383   -0.061942
     37          1           0       -3.220997    3.916595   -0.322165
     38          1           0       -1.787014    3.884000   -1.385891
     39          1           0       -1.711212    4.703651    0.199686
     40          1           0       -1.741616    3.284349    2.245175
     41          1           0       -1.691547    1.518353    2.094482
     42          1           0       -3.187698    2.390097    1.729571
     43          1           0        1.836962    0.960030    0.968668
     44          1           0        2.296334    1.527245   -0.649500
     45          1           0       -0.329337    0.356993    1.166019
     46          1           0        0.561971    0.508732   -1.561647
     47          1           0        0.964744   -0.934417   -0.734221
 ---------------------------------------------------------------------

 SCF Done:  E(RB3LYP) =  -864.879298604     A.U. after    1 cycles

 Isotropic polarizability for W=    0.000000      173.17 Bohr**3.
 End of Minotr Frequency-dependent properties file   721 does not exist.

                     1                      2                      3
                     A                      A                      A
 Frequencies --    21.8095                25.1909                40.2138
 Red. masses --     3.8430                 3.2945                 2.9113
 Frc consts  --     0.0011                 0.0012                 0.0028
 IR Inten    --     0.7002                 1.3316                 1.5206

                     4                      5                      6
                     A                      A                      A
 Frequencies --    53.6643                71.8555                79.0405
 Red. masses --     3.0668                 2.6791                 1.7483
 Frc consts  --     0.0052                 0.0081                 0.0064
 IR Inten    --     1.3651                 0.2223                 3.3814

                     7                      8                      9
                     A                      A                      A
 Frequencies --    80.8102                97.8277               103.7360
 Red. masses --     1.9273                 1.2945                 1.5008
 Frc consts  --     0.0074                 0.0073                 0.0095
 IR Inten    --     1.8861                 0.4366                 1.9706

                    10                     11                     12
                     A                      A                      A
 Frequencies --   112.1304               130.1163               137.4303
 Red. masses --     2.0378                 1.2536                 2.7346
 Frc consts  --     0.0151                 0.0125                 0.0304
 IR Inten    --     2.4636                 0.3172                 3.2229

                    13                     14                     15
                     A                      A                      A
 Frequencies --   151.2050               188.5133               201.1559
 Red. masses --     2.6282                 3.3694                 3.2615
 Frc consts  --     0.0354                 0.0705                 0.0778
 IR Inten    --     4.0074                 1.0260                 2.1054

                    16                     17                     18
                     A                      A                      A
 Frequencies --   215.7842               229.3724               261.6338
 Red. masses --     3.4804                 2.2884                 2.4762
 Frc consts  --     0.0955                 0.0709                 0.0999
 IR Inten    --     1.3481                 0.3765                 6.4081

                    19                     20                     21
                     A                      A                      A
 Frequencies --   263.3220               284.8041               311.1919
 Red. masses --     2.5985                 2.6664                 2.6107
 Frc consts  --     0.1062                 0.1274                 0.1490
 IR Inten    --     2.4153                 2.4066                 0.9859

                    22                     23                     24
                     A                      A                      A
 Frequencies --   337.6359               342.3316               397.3207
 Red. masses --     2.0960                 3.4951                 2.8451
 Frc consts  --     0.1408                 0.2413                 0.2646
 IR Inten    --     2.8700                11.9783                 2.7019

                    25                     26                     27
                     A                      A                      A
 Frequencies --   416.3726               425.6340               441.5620
 Red. masses --     2.3624                 2.9714                 2.9676
 Frc consts  --     0.2413                 0.3172                 0.3409
 IR Inten    --    38.1639                41.0132                 0.6100

                    28                     29                     30
                     A                      A                      A
 Frequencies --   450.8352               464.4268               497.7157
 Red. masses --     2.9081                 2.6856                 2.8771
 Frc consts  --     0.3483                 0.3413                 0.4199
 IR Inten    --    13.2894                17.4138                23.7581

                    31                     32                     33
                     A                      A                      A
 Frequencies --   536.0792               563.4032               587.6265
 Red. masses --     2.4380                 3.0457                 2.7686
 Frc consts  --     0.4128                 0.5696                 0.5633
 IR Inten    --    70.6354                17.1892                31.2846

                    34                     35                     36
                     A                      A                      A
 Frequencies --   622.0832               632.5250               725.4189
 Red. masses --     4.8435                 4.7351                 4.8997
 Frc consts  --     1.1043                 1.1162                 1.5192
 IR Inten    --     6.4245                 9.8414                 6.2380

                    37                     38                     39
                     A                      A                      A
 Frequencies --   777.1644               798.1904               803.8125
 Red. masses --     3.2353                 4.0204                 1.5525
 Frc consts  --     1.1513                 1.5091                 0.5910
 IR Inten    --    39.5603                17.8830                 0.4106

                    40                     41                     42
                     A                      A                      A
 Frequencies --   819.7200               858.2161               903.3550
 Red. masses --     2.5376                 2.0599                 2.2393
 Frc consts  --     1.0046                 0.8939                 1.0767
 IR Inten    --     0.6860                 1.7157                 4.4874

                    43                     44                     45
                     A                      A                      A
 Frequencies --   909.0847               941.7373               949.9462
 Red. masses --     1.7426                 1.6665                 2.2305
 Frc consts  --     0.8485                 0.8708                 1.1859
 IR Inten    --     5.5851                 0.7549                 3.8953

                    46                     47                     48
                     A                      A                      A
 Frequencies --   955.4361               965.9685               978.4688
 Red. masses --     3.1346                 2.7913                 2.8130
 Frc consts  --     1.6859                 1.5345                 1.5868
 IR Inten    --     5.1032                 1.1640                 4.9965

                    49                     50                     51
                     A                      A                      A
 Frequencies --  1018.9521              1045.2973              1049.6489
 Red. masses --     2.3773                 2.6396                 2.0271
 Frc consts  --     1.4543                 1.6993                 1.3159
 IR Inten    --    16.6054                19.9776                 1.1996

                    52                     53                     54
                     A                      A                      A
 Frequencies --  1071.6707              1079.2751              1083.3478
 Red. masses --     1.9129                 1.7075                 1.4613
 Frc consts  --     1.2944                 1.1718                 1.0105
 IR Inten    --     6.6446                23.4660                 4.8029

                    55                     56                     57
                     A                      A                      A
 Frequencies --  1086.5872              1091.0514              1101.6364
 Red. masses --     1.4503                 2.8339                 2.8842
 Frc consts  --     1.0088                 1.9876                 2.0623
 IR Inten    --     6.6808                 1.3034                 0.5145

                    58                     59                     60
                     A                      A                      A
 Frequencies --  1115.4252              1132.1371              1132.3047
 Red. masses --     1.1942                 1.2222                 1.2251
 Frc consts  --     0.8754                 0.9230                 0.9255
 IR Inten    --     3.0143                 0.1549                 0.1598

                    61                     62                     63
                     A                      A                      A
 Frequencies --  1158.7398              1181.3912              1183.8194
 Red. masses --     1.8684                 1.7280                 1.6097
 Frc consts  --     1.4781                 1.4209                 1.3292
 IR Inten    --    51.5280                33.6467                46.0955

                    64                     65                     66
                     A                      A                      A
 Frequencies --  1184.2549              1185.9689              1220.2410
 Red. masses --     1.5031                 1.6141                 1.3458
 Frc consts  --     1.2420                 1.3376                 1.1807
 IR Inten    --    39.2810                17.1602                 0.9535

                    67                     68                     69
                     A                      A                      A
 Frequencies --  1244.2340              1258.3115              1272.1328
 Red. masses --     1.3215                 1.4836                 3.0991
 Frc consts  --     1.2054                 1.3840                 2.9549
 IR Inten    --     4.6467                28.0708                58.8548

                    70                     71                     72
                     A                      A                      A
 Frequencies --  1276.5723              1302.4200              1304.4066
 Red. masses --     3.6948                 1.2678                 1.2919
 Frc consts  --     3.5476                 1.2670                 1.2951
 IR Inten    --    37.1964                41.2041                 0.1974

                    73                     74                     75
                     A                      A                      A
 Frequencies --  1312.6194              1330.4911              1353.9415
 Red. masses --     1.2208                 1.2839                 1.3099
 Frc consts  --     1.2393                 1.3390                 1.4148
 IR Inten    --    53.4487                33.6274                 1.2292

                    76                     77                     78
                     A                      A                      A
 Frequencies --  1360.5667              1381.1529              1384.4926
 Red. masses --     1.2842                 1.2591                 1.3540
 Frc consts  --     1.4007                 1.4152                 1.5291
 IR Inten    --     0.5246                 5.4581                 9.1917

                    79                     80                     81
                     A                      A                      A
 Frequencies --  1388.9643              1403.9336              1405.6379
 Red. masses --     1.3386                 1.4604                 1.4565
 Frc consts  --     1.5216                 1.6959                 1.6956
 IR Inten    --     6.8263                21.8642                23.1195

                    82                     83                     84
                     A                      A                      A
 Frequencies --  1419.7825              1424.3664              1460.4321
 Red. masses --     1.4188                 1.3771                 1.2219
 Frc consts  --     1.6850                 1.6461                 1.5355
 IR Inten    --    68.9955               205.5473                43.4002

                    85                     86                     87
                     A                      A                      A
 Frequencies --  1461.6527              1463.8464              1474.1937
 Red. masses --     1.3561                 1.2270                 2.0059
 Frc consts  --     1.7070                 1.5492                 2.5685
 IR Inten    --    97.4507                73.4985                28.3719

                    88                     89                     90
                     A                      A                      A
 Frequencies --  1488.0919              1502.5189              1503.5320
 Red. masses --     1.5649                 1.1891                 1.1843
 Frc consts  --     2.0417                 1.5816                 1.5774
 IR Inten    --    72.7977                 3.1811                35.4634

                    91                     92                     93
                     A                      A                      A
 Frequencies --  1506.4444              1508.2364              1512.6680
 Red. masses --     1.0474                 1.0464                 1.0877
 Frc consts  --     1.4004                 1.4025                 1.4663
 IR Inten    --     7.7803                 2.0540                 5.3323

                    94                     95                     96
                     A                      A                      A
 Frequencies --  1516.3541              1516.9210              1518.5597
 Red. masses --     1.0884                 1.0893                 1.0836
 Frc consts  --     1.4745                 1.4768                 1.4723
 IR Inten    --     5.3215                 7.2280                30.2767

                    97                     98                     99
                     A                      A                      A
 Frequencies --  1524.2177              1528.1301              1528.2893
 Red. masses --     1.0905                 1.0565                 1.0683
 Frc consts  --     1.4927                 1.4535                 1.4701
 IR Inten    --    11.2017                 5.0832                27.8658

                   100                    101                    102
                     A                      A                      A
 Frequencies --  1529.6938              1530.3717              1537.2296
 Red. masses --     1.0849                 1.0627                 1.1014
 Frc consts  --     1.4957                 1.4665                 1.5334
 IR Inten    --     1.2028                34.5659                 3.0897

                   103                    104                    105
                     A                      A                      A
 Frequencies --  1564.3219              1568.0734              1617.4633
 Red. masses --     1.3809                 1.4105                 1.1322
 Frc consts  --     1.9910                 2.0433                 1.7452
 IR Inten    --    26.0166                49.2083               146.4344

                   106                    107                    108
                     A                      A                      A
 Frequencies --  1740.0418              1760.0528              3010.3460
 Red. masses --     5.0570                 6.4038                 1.0805
 Frc consts  --     9.0211                11.6879                 5.7694
 IR Inten    --   215.5219               331.8300                 2.7004

                   109                    110                    111
                     A                      A                      A
 Frequencies --  3020.8661              3031.4059              3033.4122
 Red. masses --     1.0648                 1.0718                 1.0670
 Frc consts  --     5.7253                 5.8030                 5.7846
 IR Inten    --    16.8122                13.2741                18.7007

                   112                    113                    114
                     A                      A                      A
 Frequencies --  3038.5317              3043.9142              3061.9438
 Red. masses --     1.0661                 1.0634                 1.0369
 Frc consts  --     5.7994                 5.8053                 5.7278
 IR Inten    --     1.5848                43.3852                13.3377

                   115                    116                    117
                     A                      A                      A
 Frequencies --  3062.2252              3065.5833              3066.9756
 Red. masses --     1.0379                 1.0974                 1.0382
 Frc consts  --     5.7340                 6.0765                 5.7535
 IR Inten    --    10.4302                40.3178                44.9000

                   118                    119                    120
                     A                      A                      A
 Frequencies --  3067.8671              3090.9476              3094.5137
 Red. masses --     1.0372                 1.0971                 1.0981
 Frc consts  --     5.7515                 6.1757                 6.1953
 IR Inten    --    30.1921                28.5814                24.0845

                   121                    122                    123
                     A                      A                      A
 Frequencies --  3095.5483              3098.9219              3106.0502
 Red. masses --     1.0934                 1.1032                 1.0604
 Frc consts  --     6.1728                 6.2423                 6.0274
 IR Inten    --    26.9628                42.6327                 2.8791

                   124                    125                    126
                     A                      A                      A
 Frequencies --  3118.6800              3119.7905              3124.4896
 Red. masses --     1.1058                 1.1059                 1.1061
 Frc consts  --     6.3365                 6.3419                 6.3619
 IR Inten    --    15.0610                10.9744                 9.2443

                   127                    128                    129
                     A                      A                      A
 Frequencies --  3127.8110              3129.6659              3143.3508
 Red. masses --     1.1063                 1.0836                 1.0685
 Frc consts  --     6.3769                 6.2535                 6.2205
 IR Inten    --     9.3256                28.8491               189.1183

                   130                    131                    132
                     A                      A                      A
 Frequencies --  3166.1880              3180.6807              3197.3674
 Red. masses --     1.1071                 1.0988                 1.0966
 Frc consts  --     6.5390                 6.5497                 6.6051
 IR Inten    --     1.3832                20.7583                13.7574

                   133                    134                    135
                     A                      A                      A
 Frequencies --  3201.7369              3209.2551              3212.1613
 Red. masses --     1.0838                 1.1000                 1.0995
 Frc consts  --     6.5459                 6.6751                 6.6838
 IR Inten    --   331.6497                 0.5067                 1.6417

 - Thermochemistry -
 -------------------
 Temperature   298.150 Kelvin.  Pressure   1.00000 Atm.
 Atom     1 has atomic number  6 and mass  12.00000

 Molecular mass:   270.21815 amu.
 Principal axes and moments of inertia in atomic units:
                           1         2         3
     Eigenvalues --  4136.718518264.09747**********
           X            0.99994   0.01121   0.00031
           Y           -0.01122   0.99989   0.00945
           Z           -0.00021  -0.00945   0.99996
 This molecule is an asymmetric top.
 Rotational symmetry number  1.
 Warning -- assumption of classical behavior for rotation
           may cause significant error
 Rotational temperatures (Kelvin)      0.02094     0.01048     0.00759
 Rotational constants (GHZ):           0.43627     0.21838     0.15815
 Zero-point vibrational energy    1123833.1 (Joules/Mol)
                                  268.60255 (Kcal/Mol)
 Warning -- explicit consideration of  33 degrees of freedom as
           vibrations may cause significant error
 Vibrational temperatures:     31.38    36.24    57.86    77.21   103.38
          (Kelvin)            113.72   116.27   140.75   149.25   161.33
                              187.21   197.73   217.55   271.23   289.42
                              310.46   330.02   376.43   378.86   409.77
                              447.74   485.78   492.54   571.66   599.07
                              612.39   635.31   648.65   668.21   716.10
                              771.30   810.61   845.46   895.04   910.06
                             1043.71  1118.16  1148.42  1156.51  1179.39
                             1234.78  1299.72  1307.97  1354.95  1366.76
                             1374.66  1389.81  1407.80  1466.04  1503.95
                             1510.21  1541.89  1552.83  1558.69  1563.35
                             1569.78  1585.01  1604.85  1628.89  1629.13
                             1667.17  1699.76  1703.25  1703.88  1706.34
                             1755.65  1790.17  1810.43  1830.31  1836.70
                             1873.89  1876.75  1888.56  1914.28  1948.02
                             1957.55  1987.17  1991.97  1998.41  2019.94
                             2022.40  2042.75  2049.34  2101.23  2102.99
                             2106.15  2121.03  2141.03  2161.79  2163.24
                             2167.43  2170.01  2176.39  2181.69  2182.51
                             2184.87  2193.01  2198.64  2198.86  2200.89
                             2201.86  2211.73  2250.71  2256.11  2327.17
                             2503.53  2532.32  4331.21  4346.35  4361.51
                             4364.40  4371.76  4379.51  4405.45  4405.85
                             4410.69  4412.69  4413.97  4447.18  4452.31
                             4453.80  4458.65  4468.91  4487.08  4488.68
                             4495.44  4500.22  4502.89  4522.58  4555.43
                             4576.28  4600.29  4606.58  4617.40  4621.58

 Zero-point correction=                           0.428045 (Hartree/Particle)
 Thermal correction to Energy=                    0.449806
 Thermal correction to Enthalpy=                  0.450750
 Thermal correction to Gibbs Free Energy=         0.375297
 Sum of electronic and zero-point Energies=           -864.451253
 Sum of electronic and thermal Energies=              -864.429493
 Sum of electronic and thermal Enthalpies=            -864.428549
 Sum of electronic and thermal Free Energies=         -864.504001

                     E (Thermal)             CV                S
                      KCal/Mol        Cal/Mol-Kelvin    Cal/Mol-Kelvin
 Total                  282.257             79.371            158.803
 Electronic               0.000              0.000              0.000
 Translational            0.889              2.981             42.681
 Rotational               0.889              2.981             34.322
 Vibrational            280.480             73.410             81.800
 Vibration     1          0.593              1.985              6.462
 Vibration     2          0.593              1.985              6.176
 Vibration     3          0.594              1.981              5.249
 Vibration     4          0.596              1.976              4.678
 Vibration     5          0.598              1.967              4.102
 Vibration     6          0.600              1.963              3.915
 Vibration     7          0.600              1.962              3.871
 Vibration     8          0.603              1.951              3.497
 Vibration     9          0.605              1.946              3.383
 Vibration    10          0.607              1.939              3.232
 Vibration    11          0.612              1.923              2.944
 Vibration    12          0.614              1.916              2.839
 Vibration    13          0.619              1.901              2.657
 Vibration    14          0.633              1.856              2.242
 Vibration    15          0.638              1.838              2.123
 Vibration    16          0.645              1.817              1.994
 Vibration    17          0.652              1.796              1.884
 Vibration    18          0.669              1.743              1.651
 Vibration    19          0.670              1.740              1.640
 Vibration    20          0.683              1.702              1.505
 Vibration    21          0.700              1.652              1.356
 Vibration    22          0.718              1.600              1.223
 Vibration    23          0.721              1.591              1.201
 Vibration    24          0.764              1.476              0.973
 Vibration    25          0.780              1.435              0.904
 Vibration    26          0.787              1.414              0.873
 Vibration    27          0.801              1.380              0.822
 Vibration    28          0.810              1.359              0.793
 Vibration    29          0.822              1.329              0.753
 Vibration    30          0.853              1.255              0.664
 Vibration    31          0.891              1.170              0.574
 Vibration    32          0.919              1.110              0.517
 Vibration    33          0.945              1.058              0.471

 Normal termination of Gaussian 09 at Sat Feb 17 01:13:01 2018.
