 Gaussian 09, Revision C.01,
 Gaussian 09:  AM64L-G09RevC.01 23-Sep-2011

 ----------------------------------------------------------------------
 #HF/6-31G* Geom=AllCheck Guess=Read Pop=(MK,ReadRadii) Integral=(Grid=
 UltraFine) iop(6/33=2)
 ----------------------------------------------------------------------

 Structure from the checkpoint file:  frag41-conf2.chk
 -----------------------------
 Optimization for frag41-conf2
 -----------------------------
 Charge =  1 Multiplicity = 1

                         Standard orientation:
 ---------------------------------------------------------------------
 Center     Atomic      Atomic             Coordinates (Angstroms)
 Number     Number       Type             X           Y           Z
 ---------------------------------------------------------------------
      1          6           0        3.050243   -0.499457   -0.137519
      2          6           0       -0.981666    1.723487   -0.476856
      3          6           0       -3.493429   -2.978609    0.349546
      4          6           0       -2.033261   -3.291603   -0.002171
      5          6           0       -3.936176   -1.642587   -0.261112
      6          6           0       -1.096008   -2.138141    0.393225
      7          6           0       -2.998220   -0.491256    0.140636
      8          6           0       -1.537923   -0.802942   -0.249856
      9          6           0        5.318003   -1.314844    0.135438
     10          6           0        4.826381    1.058712    0.643608
     11          6           0       -2.127934    3.854949   -0.353295
     12          6           0       -2.095305    2.429730    1.657974
     13          6           0        2.011290    0.650924   -0.065078
     14          6           0       -0.550384    0.345862    0.097409
     15          7           0        4.322213   -0.239635    0.202753
     16          7           0       -1.686628    2.598585    0.265376
     17          7           0        0.748057    0.082557   -0.629727
     18          8           0        2.630342   -1.604817   -0.503166
     19          8           0       -0.633428    1.940837   -1.647365
     20          1           0       -4.146466   -3.786935    0.002234
     21          1           0       -3.604159   -2.935330    1.442626
     22          1           0       -1.705139   -4.210939    0.495536
     23          1           0       -1.944615   -3.473340   -1.082521
     24          1           0       -3.952972   -1.725211   -1.356973
     25          1           0       -4.958923   -1.399037    0.047875
     26          1           0       -1.107599   -2.018076    1.487159
     27          1           0       -0.065046   -2.404651    0.123915
     28          1           0       -3.332831    0.438130   -0.333984
     29          1           0       -3.060610   -0.342562    1.228133
     30          1           0       -1.512702   -0.908276   -1.345956
     31          1           0        6.122055   -1.028083   -0.550465
     32          1           0        4.837244   -2.223553   -0.221223
     33          1           0        5.743534   -1.487329    1.129685
     34          1           0        5.295852    0.957047    1.628106
     35          1           0        4.029372    1.798076    0.721364
     36          1           0        5.577943    1.430383   -0.061942
     37          1           0       -3.220997    3.916595   -0.322165
     38          1           0       -1.787014    3.884000   -1.385891
     39          1           0       -1.711212    4.703651    0.199686
     40          1           0       -1.741616    3.284349    2.245175
     41          1           0       -1.691547    1.518353    2.094482
     42          1           0       -3.187698    2.390097    1.729571
     43          1           0        1.836962    0.960030    0.968668
     44          1           0        2.296334    1.527245   -0.649500
     45          1           0       -0.329337    0.356993    1.166019
     46          1           0        0.561971    0.508732   -1.561647
     47          1           0        0.964744   -0.934417   -0.734221
 ---------------------------------------------------------------------

 SCF Done:  E(RHF) =  -859.352214127     A.U. after   13 cycles

 The electronic state is 1-A.
 Alpha  occ. eigenvalues --  -20.67683 -20.67080 -15.82062 -15.73786 -15.73731
 Alpha  occ. eigenvalues --  -11.51067 -11.50420 -11.45563 -11.45175 -11.39703
 Alpha  occ. eigenvalues --  -11.39532 -11.37781 -11.37155 -11.37148 -11.34571
 Alpha  occ. eigenvalues --  -11.34380 -11.32322 -11.32264 -11.31500  -1.53668
 Alpha  occ. eigenvalues --   -1.52614  -1.44590  -1.38672  -1.38228  -1.24926
 Alpha  occ. eigenvalues --   -1.18560  -1.13813  -1.11719  -1.09951  -1.09886
 Alpha  occ. eigenvalues --   -1.09605  -1.06173  -1.03992  -0.95754  -0.94654
 Alpha  occ. eigenvalues --   -0.92887  -0.89182  -0.87633  -0.86867  -0.84313
 Alpha  occ. eigenvalues --   -0.82388  -0.82166  -0.79313  -0.79003  -0.78637
 Alpha  occ. eigenvalues --   -0.76779  -0.76586  -0.74784  -0.73129  -0.71815
 Alpha  occ. eigenvalues --   -0.71198  -0.70937  -0.70133  -0.69716  -0.68646
 Alpha  occ. eigenvalues --   -0.68181  -0.68096  -0.67562  -0.66424  -0.65848
 Alpha  occ. eigenvalues --   -0.65569  -0.65490  -0.63999  -0.63246  -0.62774
 Alpha  occ. eigenvalues --   -0.60338  -0.59471  -0.57895  -0.57166  -0.56041
 Alpha  occ. eigenvalues --   -0.54511  -0.53961  -0.50842  -0.50603
 Alpha virt. eigenvalues --    0.03138   0.04223   0.07139   0.09353   0.09499
 Alpha virt. eigenvalues --    0.10963   0.12572   0.13255   0.14204   0.14643
 Alpha virt. eigenvalues --    0.15855   0.16859   0.17973   0.18144   0.18184

 Mulliken atomic charges:
              1
     1  C    0.809592
     2  C    0.824430
     3  C   -0.320472
     4  C   -0.318064
     5  C   -0.320710
     6  C   -0.348418
     7  C   -0.335846
     8  C   -0.188533
     9  C   -0.313728
    10  C   -0.305993
    11  C   -0.316047
    12  C   -0.299815
    13  C   -0.249279
    14  C   -0.096949
    15  N   -0.659927
    16  N   -0.664345
    17  N   -0.856827
    18  O   -0.659359
    19  O   -0.669103
    20  H    0.194898
    21  H    0.164839
    22  H    0.195060
    23  H    0.171984
    24  H    0.173835
    25  H    0.192306
    26  H    0.169058
    27  H    0.187804
    28  H    0.190543
    29  H    0.164633
    30  H    0.200592
    31  H    0.200562
    32  H    0.251547
    33  H    0.198638
    34  H    0.214238
    35  H    0.183359
    36  H    0.215904
    37  H    0.198984
    38  H    0.253529
    39  H    0.194356
    40  H    0.209543
    41  H    0.180564
    42  H    0.212544
    43  H    0.249394
    44  H    0.270110
    45  H    0.235723
    46  H    0.494497
    47  H    0.520349
 Sum of Mulliken atomic charges =   1.00000

 Dipole moment (field-independent basis, Debye):
    X=              3.4491    Y=              3.8435    Z=              3.4357  Tot=              6.2026
 Quadrupole moment (field-independent basis, Debye-Ang):
   XX=            -60.3145   YY=            -99.8598   ZZ=           -114.4259
   XY=              2.3234   XZ=              0.1615   YZ=              6.4570

 Normal termination of Gaussian 09 at Sat Feb 17 21:06:50 2018.
