 Gaussian 09, Revision C.01,
 Gaussian 09:  AM64L-G09RevC.01 23-Sep-2011

 ----------------------------------------------------------------------
 #HF/6-31G* Geom=AllCheck Guess=Read Pop=(MK,ReadRadii) Integral=(Grid=
 UltraFine) iop(6/33=2)
 ----------------------------------------------------------------------

 Structure from the checkpoint file:  frag30-conf0.chk
 -----------------------------
 Optimization for frag30-conf0
 -----------------------------
 Charge =  0 Multiplicity = 1

                         Standard orientation:
 ---------------------------------------------------------------------
 Center     Atomic      Atomic             Coordinates (Angstroms)
 Number     Number       Type             X           Y           Z
 ---------------------------------------------------------------------
      1          6           0        3.290897   -0.755838   -0.001217
      2          6           0        3.468997    0.629800   -0.001664
      3          6           0        1.998150   -1.267650    0.000213
      4          6           0        2.334543    1.435610   -0.000628
      5          6           0        0.916095   -0.376852    0.001083
      6          6           0       -2.800278   -0.055210   -0.000423
      7          6           0       -3.686662    1.182493   -0.000843
      8          6           0       -0.506921   -0.903569    0.002601
      9          7           0        1.084284    0.951456    0.000700
     10          7           0       -1.460514    0.181159    0.003884
     11          8           0       -3.263856   -1.191861   -0.003465
     12          1           0        4.147312   -1.424679   -0.001963
     13          1           0        4.459732    1.073483   -0.002765
     14          1           0        1.820560   -2.339787    0.000640
     15          1           0        2.424211    2.520361   -0.000888
     16          1           0       -4.332400    1.154649   -0.884105
     17          1           0       -4.337261    1.151767    0.878740
     18          1           0       -3.127943    2.123683    0.002275
     19          1           0       -0.667588   -1.549471   -0.872519
     20          1           0       -0.665250   -1.549857    0.877882
     21          1           0       -1.065832    1.113733    0.003608
 ---------------------------------------------------------------------

 SCF Done:  E(RHF) =  -492.549043028     A.U. after   14 cycles

 The electronic state is 1-A.
 Alpha  occ. eigenvalues --  -20.50814 -15.57995 -15.57520 -11.34191 -11.29668
 Alpha  occ. eigenvalues --  -11.28772 -11.27125 -11.27022 -11.25100 -11.25036
 Alpha  occ. eigenvalues --  -11.22991  -1.36044  -1.27415  -1.21469  -1.09475
 Alpha  occ. eigenvalues --   -1.06132  -0.99994  -0.93687  -0.86978  -0.83339
 Alpha  occ. eigenvalues --   -0.78079  -0.71794  -0.67757  -0.66806  -0.64438
 Alpha  occ. eigenvalues --   -0.63580  -0.62849  -0.58885  -0.58582  -0.57555
 Alpha  occ. eigenvalues --   -0.55727  -0.54441  -0.53826  -0.51782  -0.48921
 Alpha  occ. eigenvalues --   -0.42853  -0.40542  -0.39145  -0.37917  -0.34313
 Alpha virt. eigenvalues --    0.11154   0.12500   0.20828   0.23112   0.24280
 Alpha virt. eigenvalues --    0.26324   0.28772   0.29105   0.30194   0.31052
 Alpha virt. eigenvalues --    0.31163   0.34091   0.34274   0.37762   0.38201

 Mulliken atomic charges:
              1
     1  C   -0.137363
     2  C   -0.270289
     3  C   -0.263354
     4  C    0.085696
     5  C    0.295980
     6  C    0.768078
     7  C   -0.573455
     8  C   -0.084329
     9  N   -0.617814
    10  N   -0.840734
    11  O   -0.636689
    12  H    0.222019
    13  H    0.215987
    14  H    0.219301
    15  H    0.208807
    16  H    0.203369
    17  H    0.203415
    18  H    0.170031
    19  H    0.201577
    20  H    0.201340
    21  H    0.428428
 Sum of Mulliken atomic charges =   0.00000

 Dipole moment (field-independent basis, Debye):
    X=              4.4262    Y=              2.0177    Z=              0.0025  Tot=              4.8644
 Quadrupole moment (field-independent basis, Debye-Ang):
   XX=            -62.8120   YY=            -62.0111   ZZ=            -67.0438
   XY=            -11.7736   XZ=             -0.0274   YZ=             -0.0169

 Normal termination of Gaussian 09 at Sat Feb 17 21:01:35 2018.
