 Gaussian 09, Revision C.01,
 Gaussian 09:  AM64L-G09RevC.01 23-Sep-2011

 ----------------------------------------------------------------------
 #HF/6-31G* Geom=AllCheck Guess=Read Pop=(MK,ReadRadii) Integral=(Grid=
 UltraFine) iop(6/33=2)
 ----------------------------------------------------------------------

 Structure from the checkpoint file:  frag6-conf0.chk
 ----------------------------
 Optimization for frag6-conf0
 ----------------------------
 Charge =  1 Multiplicity = 1

                         Standard orientation:
 ---------------------------------------------------------------------
 Center     Atomic      Atomic             Coordinates (Angstroms)
 Number     Number       Type             X           Y           Z
 ---------------------------------------------------------------------
      1          6           0       -1.793421    1.376012    0.043140
      2          6           0       -1.145125   -0.962965    0.212622
      3          6           0       -0.474040    1.746206    0.281832
      4          6           0        0.168540   -0.581024    0.442747
      5          6           0       -2.141189    0.013646    0.009324
      6          6           0        0.521242    0.780258    0.482948
      7          6           0       -3.528763   -0.387492   -0.223319
      8          6           0        3.544301   -0.464204   -0.169070
      9          6           0        4.649961   -0.706625   -1.177727
     10          6           0        1.960897    1.181896    0.764882
     11          7           0       -4.309868    0.336441   -1.022553
     12          7           0        2.904872    0.747948   -0.257081
     13          7           0       -4.015077   -1.477724    0.365170
     14          8           0        3.236361   -1.287091    0.687112
     15          1           0       -2.554177    2.144789   -0.060950
     16          1           0       -1.387934   -2.020162    0.147565
     17          1           0       -0.219931    2.801509    0.328910
     18          1           0        0.944020   -1.325887    0.594104
     19          1           0        5.612980   -0.678456   -0.656544
     20          1           0        4.534698   -1.709855   -1.595570
     21          1           0        4.671103    0.024765   -1.991106
     22          1           0        2.032568    2.268554    0.866299
     23          1           0        2.274322    0.729485    1.711927
     24          1           0       -3.906278    1.064263   -1.596620
     25          1           0       -5.299622    0.153165   -1.135753
     26          1           0        3.190842    1.410971   -0.963141
     27          1           0       -3.482310   -1.938659    1.090760
     28          1           0       -4.935092   -1.848657    0.160205
 ---------------------------------------------------------------------

 SCF Done:  E(RHF) =  -624.884000234     A.U. after   14 cycles

 The electronic state is 1-A.
 Alpha  occ. eigenvalues --  -20.61599 -15.79235 -15.79182 -15.68949 -11.56067
 Alpha  occ. eigenvalues --  -11.44790 -11.40692 -11.39915 -11.39426 -11.38720
 Alpha  occ. eigenvalues --  -11.38301 -11.37410 -11.36387 -11.31995  -1.49667
 Alpha  occ. eigenvalues --   -1.46864  -1.37976  -1.32914  -1.29814  -1.19693
 Alpha  occ. eigenvalues --   -1.15971  -1.11063  -1.07251  -1.02510  -0.97988
 Alpha  occ. eigenvalues --   -0.96588  -0.92437  -0.91817  -0.88370  -0.85140
 Alpha  occ. eigenvalues --   -0.82822  -0.79962  -0.78650  -0.76585  -0.75034
 Alpha  occ. eigenvalues --   -0.74300  -0.73392  -0.72653  -0.69011  -0.67077
 Alpha  occ. eigenvalues --   -0.66552  -0.65254  -0.64127  -0.63269  -0.62094
 Alpha  occ. eigenvalues --   -0.60476  -0.59200  -0.51293  -0.49166  -0.47864
 Alpha  occ. eigenvalues --   -0.47215
 Alpha virt. eigenvalues --   -0.06952  -0.00461   0.04421   0.04769   0.08970
 Alpha virt. eigenvalues --    0.09599   0.09997   0.11954   0.13060   0.13298
 Alpha virt. eigenvalues --    0.16424   0.18293   0.19271   0.21056   0.22355

 Mulliken atomic charges:
              1
     1  C   -0.186818
     2  C   -0.192539
     3  C   -0.231988
     4  C   -0.225423
     5  C   -0.088491
     6  C    0.059492
     7  C    0.749416
     8  C    0.760478
     9  C   -0.579336
    10  C   -0.168750
    11  N   -0.893732
    12  N   -0.797570
    13  N   -0.892329
    14  O   -0.629219
    15  H    0.244018
    16  H    0.246054
    17  H    0.243459
    18  H    0.313800
    19  H    0.227276
    20  H    0.222308
    21  H    0.178940
    22  H    0.208083
    23  H    0.250155
    24  H    0.450923
    25  H    0.438989
    26  H    0.399937
    27  H    0.453772
    28  H    0.439095
 Sum of Mulliken atomic charges =   1.00000

 Dipole moment (field-independent basis, Debye):
    X=            -12.4566    Y=              1.5543    Z=             -3.0707  Tot=             12.9233
 Quadrupole moment (field-independent basis, Debye-Ang):
   XX=              4.3919   YY=            -66.5416   ZZ=            -77.9493
   XY=             17.7857   XZ=             -1.4178   YZ=             -2.5136

 Normal termination of Gaussian 09 at Sat Feb 17 20:56:51 2018.
