 Gaussian 09, Revision C.01,
 Gaussian 09:  AM64L-G09RevC.01 23-Sep-2011

 ---------------------------------------------------------
 #B3LYP/6-31G* Integral=(Grid=UltraFine) freq Opt pop=none
 ---------------------------------------------------------

 99/9=1/99;
 ----------------------------
 Optimization for frag6-conf0
 ----------------------------
 Charge =  1 Multiplicity = 1

 SCF Done:  E(RB3LYP) =  -628.776227297     A.U. after   17 cycles
 SCF Done:  E(RB3LYP) =  -628.779782820     A.U. after   13 cycles
 SCF Done:  E(RB3LYP) =  -628.780307952     A.U. after   12 cycles
 SCF Done:  E(RB3LYP) =  -628.780466023     A.U. after   12 cycles
 SCF Done:  E(RB3LYP) =  -628.780525482     A.U. after   11 cycles
 SCF Done:  E(RB3LYP) =  -628.780591678     A.U. after   11 cycles
 SCF Done:  E(RB3LYP) =  -628.780974158     A.U. after   17 cycles
 SCF Done:  E(RB3LYP) =  -628.781518670     A.U. after   16 cycles
 SCF Done:  E(RB3LYP) =  -628.782276527     A.U. after   13 cycles
 SCF Done:  E(RB3LYP) =  -628.783496629     A.U. after   13 cycles
 SCF Done:  E(RB3LYP) =  -628.789529319     A.U. after    9 cycles
 SCF Done:  E(RB3LYP) =  -628.789529559     A.U. after    7 cycles
 SCF Done:  E(RB3LYP) =  -628.789529638     A.U. after    7 cycles
 SCF Done:  E(RB3LYP) =  -628.789529696     A.U. after    7 cycles
 SCF Done:  E(RB3LYP) =  -628.789529741     A.U. after    7 cycles
 SCF Done:  E(RB3LYP) =  -628.789529765     A.U. after    6 cycles
 SCF Done:  E(RB3LYP) =  -628.789529781     A.U. after    6 cycles
 SCF Done:  E(RB3LYP) =  -628.789529797     A.U. after    6 cycles
 SCF Done:  E(RB3LYP) =  -628.789529814     A.U. after    7 cycles
 Optimization completed.
    -- Stationary point found.
 Normal termination of Gaussian 09 at Fri Feb 16 18:14:18 2018.

 --------------------------------------------------------------------
 #N Geom=AllCheck Guess=TCheck SCRF=Check GenChk RB3LYP/6-31G(d) Freq
 --------------------------------------------------------------------

 Structure from the checkpoint file:  frag6-conf0.chk
 ----------------------------
 Optimization for frag6-conf0
 ----------------------------
 Charge =  1 Multiplicity = 1

                         Standard orientation:
 ---------------------------------------------------------------------
 Center     Atomic      Atomic             Coordinates (Angstroms)
 Number     Number       Type             X           Y           Z
 ---------------------------------------------------------------------
      1          6           0       -1.793421    1.376012    0.043140
      2          6           0       -1.145125   -0.962965    0.212622
      3          6           0       -0.474040    1.746206    0.281832
      4          6           0        0.168540   -0.581024    0.442747
      5          6           0       -2.141189    0.013646    0.009324
      6          6           0        0.521242    0.780258    0.482948
      7          6           0       -3.528763   -0.387492   -0.223319
      8          6           0        3.544301   -0.464204   -0.169070
      9          6           0        4.649961   -0.706625   -1.177727
     10          6           0        1.960897    1.181896    0.764882
     11          7           0       -4.309868    0.336441   -1.022553
     12          7           0        2.904872    0.747948   -0.257081
     13          7           0       -4.015077   -1.477724    0.365170
     14          8           0        3.236361   -1.287091    0.687112
     15          1           0       -2.554177    2.144789   -0.060950
     16          1           0       -1.387934   -2.020162    0.147565
     17          1           0       -0.219931    2.801509    0.328910
     18          1           0        0.944020   -1.325887    0.594104
     19          1           0        5.612980   -0.678456   -0.656544
     20          1           0        4.534698   -1.709855   -1.595570
     21          1           0        4.671103    0.024765   -1.991106
     22          1           0        2.032568    2.268554    0.866299
     23          1           0        2.274322    0.729485    1.711927
     24          1           0       -3.906278    1.064263   -1.596620
     25          1           0       -5.299622    0.153165   -1.135753
     26          1           0        3.190842    1.410971   -0.963141
     27          1           0       -3.482310   -1.938659    1.090760
     28          1           0       -4.935092   -1.848657    0.160205
 ---------------------------------------------------------------------

 SCF Done:  E(RB3LYP) =  -628.789529814     A.U. after    1 cycles

 Isotropic polarizability for W=    0.000000      128.17 Bohr**3.
 End of Minotr Frequency-dependent properties file   721 does not exist.

                     1                      2                      3
                     A                      A                      A
 Frequencies --    25.3342                53.0759                58.2731
 Red. masses --     3.9523                 2.0265                 1.4530
 Frc consts  --     0.0015                 0.0034                 0.0029
 IR Inten    --     0.1451                 6.8367                 3.4052

                     4                      5                      6
                     A                      A                      A
 Frequencies --    83.7713                97.0602               102.4037
 Red. masses --     5.7825                 3.9327                 3.7422
 Frc consts  --     0.0239                 0.0218                 0.0231
 IR Inten    --    16.8288                 0.1186                 3.8402

                     7                      8                      9
                     A                      A                      A
 Frequencies --   166.4578               206.8630               248.9512
 Red. masses --     4.9959                 5.8186                 4.0895
 Frc consts  --     0.0816                 0.1467                 0.1493
 IR Inten    --     0.4430                10.8231                 2.9594

                    10                     11                     12
                     A                      A                      A
 Frequencies --   281.5824               332.2772               378.6822
 Red. masses --     4.1430                 2.3438                 3.7476
 Frc consts  --     0.1935                 0.1525                 0.3166
 IR Inten    --     8.2479                 7.4704                 2.7094

                    13                     14                     15
                     A                      A                      A
 Frequencies --   408.3352               415.2138               440.3949
 Red. masses --     1.1974                 2.8992                 2.6632
 Frc consts  --     0.1176                 0.2945                 0.3043
 IR Inten    --    76.0786                 7.2147                 0.2338

                    16                     17                     18
                     A                      A                      A
 Frequencies --   453.6836               482.5469               494.0822
 Red. masses --     1.2303                 1.8259                 1.6222
 Frc consts  --     0.1492                 0.2505                 0.2333
 IR Inten    --    20.5854                 0.9574                 2.0938

                    19                     20                     21
                     A                      A                      A
 Frequencies --   508.9271               538.4630               579.4141
 Red. masses --     1.2551                 2.5718                 2.9724
 Frc consts  --     0.1915                 0.4393                 0.5879
 IR Inten    --   463.2562                13.4604                 4.1025

                    22                     23                     24
                     A                      A                      A
 Frequencies --   631.5810               632.2292               649.4304
 Red. masses --     2.8876                 2.4592                 3.3854
 Frc consts  --     0.6786                 0.5791                 0.8412
 IR Inten    --     6.7560                 1.5134                 1.6305

                    25                     26                     27
                     A                      A                      A
 Frequencies --   655.4215               704.2605               723.4513
 Red. masses --     1.5991                 3.3141                 3.5033
 Frc consts  --     0.4047                 0.9685                 1.0803
 IR Inten    --     7.3018                 4.8251                21.1450

                    28                     29                     30
                     A                      A                      A
 Frequencies --   772.3351               830.6505               849.1380
 Red. masses --     4.5989                 3.3898                 2.3086
 Frc consts  --     1.6163                 1.3780                 0.9807
 IR Inten    --     1.8817                16.1900                 1.9427

                    31                     32                     33
                     A                      A                      A
 Frequencies --   863.4738               885.4349               980.5023
 Red. masses --     1.4410                 1.7770                 1.3299
 Frc consts  --     0.6330                 0.8208                 0.7533
 IR Inten    --     0.7719                32.4661                 0.8502

                    34                     35                     36
                     A                      A                      A
 Frequencies --  1002.1285              1025.5535              1034.2332
 Red. masses --     1.6076                 1.4398                 2.8542
 Frc consts  --     0.9512                 0.8922                 1.7988
 IR Inten    --     4.9945                 3.6907                 2.5402

                    37                     38                     39
                     A                      A                      A
 Frequencies --  1043.4728              1069.7183              1071.2056
 Red. masses --     2.3571                 1.6880                 1.3265
 Frc consts  --     1.5122                 1.1381                 0.8968
 IR Inten    --     9.2334                 8.7298                 2.0061

                    40                     41                     42
                     A                      A                      A
 Frequencies --  1106.4890              1109.2736              1165.3453
 Red. masses --     2.2053                 2.9378                 1.3695
 Frc consts  --     1.5908                 2.1298                 1.0958
 IR Inten    --     0.8497                 8.7644                 9.1682

                    43                     44                     45
                     A                      A                      A
 Frequencies --  1179.7584              1224.7605              1234.9329
 Red. masses --     2.9027                 1.7930                 1.5657
 Frc consts  --     2.3803                 1.5846                 1.4069
 IR Inten    --    23.2006                 1.9323                 2.1979

                    46                     47                     48
                     A                      A                      A
 Frequencies --  1272.3610              1302.2770              1353.9671
 Red. masses --     1.6879                 1.6625                 1.7439
 Frc consts  --     1.6100                 1.6612                 1.8835
 IR Inten    --    80.2245               105.8012                 2.9442

                    49                     50                     51
                     A                      A                      A
 Frequencies --  1378.6138              1409.2026              1429.2218
 Red. masses --     2.0753                 1.3793                 1.2457
 Frc consts  --     2.3239                 1.6138                 1.4993
 IR Inten    --     4.7502                25.3761                20.4275

                    52                     53                     54
                     A                      A                      A
 Frequencies --  1462.2727              1490.1661              1496.6569
 Red. masses --     2.5971                 1.1051                 1.0513
 Frc consts  --     3.2719                 1.4458                 1.3875
 IR Inten    --    17.3069                10.6278                16.1659

                    55                     56                     57
                     A                      A                      A
 Frequencies --  1513.7939              1514.9874              1545.4017
 Red. masses --     1.4993                 1.5216                 1.9011
 Frc consts  --     2.0243                 2.0577                 2.6751
 IR Inten    --   126.5596               182.3483               220.6189

                    58                     59                     60
                     A                      A                      A
 Frequencies --  1563.7647              1574.9955              1615.9610
 Red. masses --     2.6977                 2.0334                 3.4278
 Frc consts  --     3.8868                 2.9719                 5.2739
 IR Inten    --    69.4558                 8.5177                 3.1305

                    61                     62                     63
                     A                      A                      A
 Frequencies --  1657.0409              1704.4414              1720.9002
 Red. masses --     5.2000                 1.2477                 2.3270
 Frc consts  --     8.4125                 2.1357                 4.0603
 IR Inten    --   136.1881               188.2947               388.2699

                    64                     65                     66
                     A                      A                      A
 Frequencies --  1772.0038              3069.0409              3075.2443
 Red. masses --     8.8574                 1.0364                 1.0593
 Frc consts  --    16.3864                 5.7513                 5.9022
 IR Inten    --   168.8366                 3.9498                14.6416

                    67                     68                     69
                     A                      A                      A
 Frequencies --  3127.4009              3138.6551              3157.9283
 Red. masses --     1.1062                 1.1022                 1.1027
 Frc consts  --     6.3747                 6.3971                 6.4790
 IR Inten    --     9.0637                 8.3466                 6.3466

                    70                     71                     72
                     A                      A                      A
 Frequencies --  3195.0367              3198.4411              3209.9755
 Red. masses --     1.0882                 1.0899                 1.0948
 Frc consts  --     6.5452                 6.5691                 6.6462
 IR Inten    --     2.2852                 3.3794                 3.3279

                    73                     74                     75
                     A                      A                      A
 Frequencies --  3221.4993              3572.8591              3583.4491
 Red. masses --     1.0951                 1.0469                 1.0494
 Frc consts  --     6.6958                 7.8738                 7.9395
 IR Inten    --    21.2572               165.9055               153.3062

                    76                     77                     78
                     A                      A                      A
 Frequencies --  3631.8601              3688.9329              3691.2983
 Red. masses --     1.0786                 1.1049                 1.1050
 Frc consts  --     8.3823                 8.8584                 8.8712
 IR Inten    --    28.3390                79.8710                83.1292

 - Thermochemistry -
 -------------------
 Temperature   298.150 Kelvin.  Pressure   1.00000 Atm.
 Atom     1 has atomic number  6 and mass  12.00000

 Molecular mass:   192.11369 amu.
 Principal axes and moments of inertia in atomic units:
                           1         2         3
     Eigenvalues --  1024.031666250.905066750.83266
           X            0.99998   0.00385  -0.00590
           Y           -0.00384   0.99999   0.00247
           Z            0.00591  -0.00245   0.99998
 This molecule is an asymmetric top.
 Rotational symmetry number  1.
 Warning -- assumption of classical behavior for rotation
           may cause significant error
 Rotational temperatures (Kelvin)      0.08458     0.01386     0.01283
 Rotational constants (GHZ):           1.76239     0.28872     0.26734
 Zero-point vibrational energy     622896.9 (Joules/Mol)
                                  148.87592 (Kcal/Mol)
 Warning -- explicit consideration of  21 degrees of freedom as
           vibrations may cause significant error
 Vibrational temperatures:     36.45    76.36    83.84   120.53   139.65
          (Kelvin)            147.34   239.50   297.63   358.18   405.13
                              478.07   544.84   587.50   597.40   633.63
                              652.75   694.28   710.87   732.23   774.73
                              833.65   908.70   909.64   934.38   943.00
                             1013.27  1040.88  1111.22  1195.12  1221.72
                             1242.34  1273.94  1410.72  1441.84  1475.54
                             1488.03  1501.32  1539.08  1541.22  1591.99
                             1596.00  1676.67  1697.41  1762.15  1776.79
                             1830.64  1873.68  1948.05  1983.52  2027.53
                             2056.33  2103.88  2144.01  2153.35  2178.01
                             2179.73  2223.49  2249.91  2266.06  2325.00
                             2384.11  2452.31  2475.99  2549.52  4415.66
                             4424.59  4499.63  4515.82  4543.55  4596.94
                             4601.84  4618.43  4635.01  5140.54  5155.78
                             5225.43  5307.55  5310.95

 Zero-point correction=                           0.237249 (Hartree/Particle)
 Thermal correction to Energy=                    0.251397
 Thermal correction to Enthalpy=                  0.252341
 Thermal correction to Gibbs Free Energy=         0.195022
 Sum of electronic and zero-point Energies=           -628.552281
 Sum of electronic and thermal Energies=              -628.538133
 Sum of electronic and thermal Enthalpies=            -628.537188
 Sum of electronic and thermal Free Energies=         -628.594508

                     E (Thermal)             CV                S
                      KCal/Mol        Cal/Mol-Kelvin    Cal/Mol-Kelvin
 Total                  157.754             53.316            120.639
 Electronic               0.000              0.000              0.000
 Translational            0.889              2.981             41.664
 Rotational               0.889              2.981             32.136
 Vibrational            155.977             47.355             46.839
 Vibration     1          0.593              1.985              6.165
 Vibration     2          0.596              1.976              4.699
 Vibration     3          0.596              1.974              4.515
 Vibration     4          0.601              1.960              3.801
 Vibration     5          0.603              1.951              3.513
 Vibration     6          0.604              1.947              3.408
 Vibration     7          0.624              1.884              2.475
 Vibration     8          0.641              1.830              2.071
 Vibration     9          0.662              1.765              1.738
 Vibration    10          0.681              1.708              1.524
 Vibration    11          0.714              1.611              1.249
 Vibration    12          0.749              1.516              1.044
 Vibration    13          0.773              1.452              0.933
 Vibration    14          0.779              1.437              0.908
 Vibration    15          0.800              1.382              0.825
 Vibration    16          0.812              1.353              0.785
 Vibration    17          0.839              1.289              0.703
 Vibration    18          0.850              1.263              0.673
 Vibration    19          0.864              1.230              0.636
 Vibration    20          0.894              1.165              0.569
 Vibration    21          0.936              1.076              0.486

 Optimization completed.
    -- Stationary point found.
 Normal termination of Gaussian 09 at Fri Feb 16 18:38:56 2018.
