 Gaussian 09, Revision C.01,
 Gaussian 09:  AM64L-G09RevC.01 23-Sep-2011

 ---------------------------------------------------------
 #B3LYP/6-31G* Integral=(Grid=UltraFine) freq Opt pop=none
 ---------------------------------------------------------

 99/9=1/99;
 -----------------------------
 Optimization for frag48-conf1
 -----------------------------
 Charge =  0 Multiplicity = 1

 SCF Done:  E(RB3LYP) =  -1429.72076357     A.U. after   15 cycles
 SCF Done:  E(RB3LYP) =  -1429.72893749     A.U. after   13 cycles
 SCF Done:  E(RB3LYP) =  -1429.73092759     A.U. after   12 cycles
 SCF Done:  E(RB3LYP) =  -1429.73142894     A.U. after   12 cycles
 SCF Done:  E(RB3LYP) =  -1429.73169847     A.U. after   12 cycles
 SCF Done:  E(RB3LYP) =  -1429.73198196     A.U. after   13 cycles
 SCF Done:  E(RB3LYP) =  -1429.73229281     A.U. after   14 cycles
 SCF Done:  E(RB3LYP) =  -1429.73266364     A.U. after   12 cycles
 SCF Done:  E(RB3LYP) =  -1429.73293213     A.U. after   15 cycles
 SCF Done:  E(RB3LYP) =  -1429.73293342     A.U. after   13 cycles
 SCF Done:  E(RB3LYP) =  -1429.73309800     A.U. after   12 cycles
 SCF Done:  E(RB3LYP) =  -1429.73310349     A.U. after   11 cycles
 SCF Done:  E(RB3LYP) =  -1429.73310405     A.U. after    9 cycles
 SCF Done:  E(RB3LYP) =  -1429.73310430     A.U. after    8 cycles
 SCF Done:  E(RB3LYP) =  -1429.73310435     A.U. after    7 cycles
 Optimization completed.
    -- Stationary point found.
 Normal termination of Gaussian 09 at Fri Aug 24 15:17:03 2018.

 --------------------------------------------------------------------
 #N Geom=AllCheck Guess=TCheck SCRF=Check GenChk RB3LYP/6-31G(d) Freq
 --------------------------------------------------------------------

 Structure from the checkpoint file:  frag48-conf1.chk
 -----------------------------
 Optimization for frag48-conf1
 -----------------------------
 Charge =  0 Multiplicity = 1

                         Standard orientation:
 ---------------------------------------------------------------------
 Center     Atomic      Atomic             Coordinates (Angstroms)
 Number     Number       Type             X           Y           Z
 ---------------------------------------------------------------------
      1          6           0       -3.111329    0.746008   -1.680803
      2          7           0       -2.533551    0.930512   -0.341646
      3          6           0       -3.296950    1.860925    0.508156
      4         16           0       -2.129527   -0.519208    0.435961
      5          8           0       -1.679136   -0.150937    1.774041
      6          8           0       -3.143234   -1.559166    0.238008
      7          7           0       -0.845925   -1.033384   -0.551428
      8          6           0        0.499472   -0.625725   -0.338523
      9          6           0        1.513554   -1.590571   -0.338657
     10          6           0        2.848362   -1.214912   -0.202458
     11          6           0        3.165166    0.132146   -0.041676
     12         17           0        4.846351    0.613618    0.144720
     13          6           0        2.163825    1.102478   -0.028562
     14          6           0        0.832997    0.725778   -0.189113
     15          1           0       -3.145747    1.726740   -2.164112
     16          1           0       -4.124099    0.322543   -1.645671
     17          1           0       -2.464466    0.091710   -2.267675
     18          1           0       -3.307003    2.830854    0.002523
     19          1           0       -2.797631    1.966265    1.470799
     20          1           0       -4.334756    1.533823    0.666618
     21          1           0       -0.966882   -2.029966   -0.709821
     22          1           0        1.262259   -2.643104   -0.445533
     23          1           0        3.632348   -1.964386   -0.208458
     24          1           0        2.423375    2.148509    0.094189
     25          1           0        0.051788    1.476987   -0.203523
 ---------------------------------------------------------------------

 SCF Done:  E(RB3LYP) =  -1429.73310435     A.U. after    1 cycles

 Isotropic polarizability for W=    0.000000      129.49 Bohr**3.
 End of Minotr Frequency-dependent properties file   721 does not exist.

                     1                      2                      3
                     A                      A                      A
 Frequencies --    29.7345                44.6246                62.4078
 Red. masses --     4.0009                 5.9757                 3.4497
 Frc consts  --     0.0021                 0.0070                 0.0079
 IR Inten    --     0.5584                 1.8313                 0.0519

                     4                      5                      6
                     A                      A                      A
 Frequencies --    87.6722               137.3710               171.4677
 Red. masses --     4.9097                 8.4070                 3.2182
 Frc consts  --     0.0222                 0.0935                 0.0557
 IR Inten    --     1.3052                 1.9253                 2.9749

                     7                      8                      9
                     A                      A                      A
 Frequencies --   206.8690               216.0314               241.2679
 Red. masses --     1.4718                 1.5166                 1.9626
 Frc consts  --     0.0371                 0.0417                 0.0673
 IR Inten    --     0.4933                 0.5609                 2.2014

                    10                     11                     12
                     A                      A                      A
 Frequencies --   269.5131               282.0106               313.7900
 Red. masses --     5.3094                 6.0541                 6.1506
 Frc consts  --     0.2272                 0.2837                 0.3568
 IR Inten    --     0.7074                 1.1879                 0.8354

                    13                     14                     15
                     A                      A                      A
 Frequencies --   341.2498               364.2828               406.8440
 Red. masses --     3.6782                 3.1210                 6.0611
 Frc consts  --     0.2524                 0.2440                 0.5911
 IR Inten    --     9.9770                 0.4894                 0.3300

                    16                     17                     18
                     A                      A                      A
 Frequencies --   420.4349               437.2299               472.1172
 Red. masses --     3.2408                 7.4807                 5.0534
 Frc consts  --     0.3375                 0.8426                 0.6636
 IR Inten    --     3.1247                20.6045                16.8322

                    19                     20                     21
                     A                      A                      A
 Frequencies --   498.3065               504.1777               550.8347
 Red. masses --     2.7899                 3.2412                 2.6449
 Frc consts  --     0.4082                 0.4854                 0.4728
 IR Inten    --    19.3797                31.0522                22.1437

                    22                     23                     24
                     A                      A                      A
 Frequencies --   592.1156               642.4495               667.4640
 Red. masses --     5.0988                 5.9473                 6.5384
 Frc consts  --     1.0532                 1.4463                 1.7162
 IR Inten    --    90.4373                 8.4367                66.5803

                    25                     26                     27
                     A                      A                      A
 Frequencies --   693.5286               716.7478               822.5469
 Red. masses --     4.6651                 4.4819                 1.3437
 Frc consts  --     1.3220                 1.3566                 0.5356
 IR Inten    --    35.7469                41.1619                18.1059

                    28                     29                     30
                     A                      A                      A
 Frequencies --   835.2599               854.5367               888.4111
 Red. masses --     1.9427                 2.3188                 4.6246
 Frc consts  --     0.7985                 0.9976                 2.1506
 IR Inten    --    83.6939                25.1523               174.9165

                    31                     32                     33
                     A                      A                      A
 Frequencies --   940.8960               942.7928               964.8551
 Red. masses --     1.3340                 3.0841                 1.3027
 Frc consts  --     0.6958                 1.6152                 0.7145
 IR Inten    --     6.1768               168.2115                 0.0448

                    34                     35                     36
                     A                      A                      A
 Frequencies --  1030.6091              1070.2817              1113.6765
 Red. masses --     3.7829                 1.5983                 2.9172
 Frc consts  --     2.3673                 1.0787                 2.1317
 IR Inten    --    27.1283                13.0532                63.1546

                    37                     38                     39
                     A                      A                      A
 Frequencies --  1123.0815              1132.6873              1143.5906
 Red. masses --     8.7240                 1.2642                 1.3312
 Frc consts  --     6.4832                 0.9556                 1.0257
 IR Inten    --   170.3944                 6.5330                 5.7118

                    40                     41                     42
                     A                      A                      A
 Frequencies --  1184.9761              1212.5289              1217.6357
 Red. masses --     1.3865                 1.1545                 3.2782
 Frc consts  --     1.1471                 1.0001                 2.8636
 IR Inten    --     3.6925                 5.4752                26.6309

                    43                     44                     45
                     A                      A                      A
 Frequencies --  1259.1097              1280.9883              1310.2159
 Red. masses --     2.9169                 1.8773                 3.3045
 Frc consts  --     2.7245                 1.8150                 3.3422
 IR Inten    --    67.3984                12.9523                64.5413

                    46                     47                     48
                     A                      A                      A
 Frequencies --  1334.3268              1345.4085              1419.0973
 Red. masses --     2.1344                 4.3365                 1.9817
 Frc consts  --     2.2390                 4.6249                 2.3513
 IR Inten    --     7.3780               116.9583                63.8946

                    49                     50                     51
                     A                      A                      A
 Frequencies --  1459.2813              1484.9034              1489.0178
 Red. masses --     1.1567                 1.2491                 1.7695
 Frc consts  --     1.4513                 1.6227                 2.3115
 IR Inten    --     0.1092                 4.3557                45.7598

                    52                     53                     54
                     A                      A                      A
 Frequencies --  1514.4518              1524.1931              1529.1546
 Red. masses --     1.0472                 1.0492                 1.0616
 Frc consts  --     1.4150                 1.4361                 1.4625
 IR Inten    --    11.0036                 4.3264                 8.2549

                    55                     56                     57
                     A                      A                      A
 Frequencies --  1540.1110              1543.2177              1639.7698
 Red. masses --     2.1745                 1.0726                 6.1630
 Frc consts  --     3.0388                 1.5050                 9.7636
 IR Inten    --   158.9483                15.8263                 0.5754

                    58                     59                     60
                     A                      A                      A
 Frequencies --  1656.7083              3029.3081              3041.5762
 Red. masses --     5.7298                 1.0483                 1.0427
 Frc consts  --     9.2658                 5.6678                 5.6832
 IR Inten    --    12.7479                49.1365                52.6715

                    61                     62                     63
                     A                      A                      A
 Frequencies --  3116.8221              3120.0940              3166.8553
 Red. masses --     1.0919                 1.0961                 1.1017
 Frc consts  --     6.2499                 6.2871                 6.5099
 IR Inten    --    14.4472                20.1197                 8.6115

                    64                     65                     66
                     A                      A                      A
 Frequencies --  3185.6863              3187.8434              3220.2011
 Red. masses --     1.0897                 1.0998                 1.0894
 Frc consts  --     6.5160                 6.5849                 6.6556
 IR Inten    --    10.6358                 2.3174                 1.5806

                    67                     68                     69
                     A                      A                      A
 Frequencies --  3226.0021              3235.7862              3557.6786
 Red. masses --     1.0933                 1.0943                 1.0756
 Frc consts  --     6.7039                 6.7508                 8.0213
 IR Inten    --     3.0795                 0.6825                38.1553

 - Thermochemistry -
 -------------------
 Temperature   298.150 Kelvin.  Pressure   1.00000 Atm.
 Atom     1 has atomic number  6 and mass  12.00000

 Molecular mass:   234.02298 amu.
 Principal axes and moments of inertia in atomic units:
                           1         2         3
     Eigenvalues --  1318.871727289.208607747.57397
           X            0.99976  -0.02084   0.00603
           Y            0.02075   0.99967   0.01503
           Z           -0.00634  -0.01490   0.99987
 This molecule is an asymmetric top.
 Rotational symmetry number  1.
 Warning -- assumption of classical behavior for rotation
           may cause significant error
 Rotational temperatures (Kelvin)      0.06567     0.01188     0.01118
 Rotational constants (GHZ):           1.36840     0.24759     0.23294
 Zero-point vibrational energy     504026.9 (Joules/Mol)
                                  120.46532 (Kcal/Mol)
 Warning -- explicit consideration of  22 degrees of freedom as
           vibrations may cause significant error
 Vibrational temperatures:     42.78    64.20    89.79   126.14   197.65
          (Kelvin)            246.70   297.64   310.82   347.13   387.77
                              405.75   451.47   490.98   524.12   585.36
                              604.91   629.08   679.27   716.95   725.40
                              792.53   851.92   924.34   960.33   997.83
                             1031.24  1183.46  1201.75  1229.49  1278.22
                             1353.74  1356.47  1388.21  1482.81  1539.89
                             1602.33  1615.86  1629.68  1645.37  1704.91
                             1744.56  1751.90  1811.58  1843.05  1885.11
                             1919.80  1935.74  2041.76  2099.58  2136.44
                             2142.36  2178.96  2192.97  2200.11  2215.87
                             2220.34  2359.26  2383.63  4358.49  4376.14
                             4484.41  4489.11  4556.39  4583.49  4586.59
                             4633.15  4641.49  4655.57  5118.70

 Zero-point correction=                           0.191974 (Hartree/Particle)
 Thermal correction to Energy=                    0.206077
 Thermal correction to Enthalpy=                  0.207022
 Thermal correction to Gibbs Free Energy=         0.149712
 Sum of electronic and zero-point Energies=          -1429.541131
 Sum of electronic and thermal Energies=             -1429.527027
 Sum of electronic and thermal Enthalpies=           -1429.526083
 Sum of electronic and thermal Free Energies=        -1429.583393

                     E (Thermal)             CV                S
                      KCal/Mol        Cal/Mol-Kelvin    Cal/Mol-Kelvin
 Total                  129.316             52.413            120.619
 Electronic               0.000              0.000              0.000
 Translational            0.889              2.981             42.252
 Rotational               0.889              2.981             32.677
 Vibrational            127.538             46.452             45.690
 Vibration     1          0.594              1.984              5.847
 Vibration     2          0.595              1.980              5.042
 Vibration     3          0.597              1.972              4.380
 Vibration     4          0.601              1.958              3.711
 Vibration     5          0.614              1.916              2.840
 Vibration     6          0.626              1.878              2.419
 Vibration     7          0.641              1.830              2.071
 Vibration     8          0.645              1.817              1.992
 Vibration     9          0.658              1.777              1.794
 Vibration    10          0.674              1.729              1.599
 Vibration    11          0.681              1.707              1.521
 Vibration    12          0.702              1.647              1.342
 Vibration    13          0.721              1.593              1.206
 Vibration    14          0.738              1.546              1.104
 Vibration    15          0.772              1.455              0.938
 Vibration    16          0.783              1.426              0.890
 Vibration    17          0.798              1.389              0.835
 Vibration    18          0.829              1.312              0.732
 Vibration    19          0.854              1.254              0.662
 Vibration    20          0.859              1.241              0.648
 Vibration    21          0.906              1.138              0.542
 Vibration    22          0.950              1.049              0.463

 Optimization completed.
    -- Stationary point found.
 Normal termination of Gaussian 09 at Fri Aug 24 15:29:32 2018.
