 Gaussian 09, Revision C.01,
 Gaussian 09:  AM64L-G09RevC.01 23-Sep-2011

 ----------------------------------------------------------------------
 #HF/6-31G* Geom=AllCheck Guess=Read Pop=(MK,ReadRadii) Integral=(Grid=
 UltraFine) iop(6/33=2)
 ----------------------------------------------------------------------

 Structure from the checkpoint file:  frag48-conf1.chk
 -----------------------------
 Optimization for frag48-conf1
 -----------------------------
 Charge =  0 Multiplicity = 1

                         Standard orientation:
 ---------------------------------------------------------------------
 Center     Atomic      Atomic             Coordinates (Angstroms)
 Number     Number       Type             X           Y           Z
 ---------------------------------------------------------------------
      1          6           0       -3.111329    0.746008   -1.680803
      2          7           0       -2.533551    0.930512   -0.341646
      3          6           0       -3.296950    1.860925    0.508156
      4         16           0       -2.129527   -0.519208    0.435961
      5          8           0       -1.679136   -0.150937    1.774041
      6          8           0       -3.143234   -1.559166    0.238008
      7          7           0       -0.845925   -1.033384   -0.551428
      8          6           0        0.499472   -0.625725   -0.338523
      9          6           0        1.513554   -1.590571   -0.338657
     10          6           0        2.848362   -1.214912   -0.202458
     11          6           0        3.165166    0.132146   -0.041676
     12         17           0        4.846351    0.613618    0.144720
     13          6           0        2.163825    1.102478   -0.028562
     14          6           0        0.832997    0.725778   -0.189113
     15          1           0       -3.145747    1.726740   -2.164112
     16          1           0       -4.124099    0.322543   -1.645671
     17          1           0       -2.464466    0.091710   -2.267675
     18          1           0       -3.307003    2.830854    0.002523
     19          1           0       -2.797631    1.966265    1.470799
     20          1           0       -4.334756    1.533823    0.666618
     21          1           0       -0.966882   -2.029966   -0.709821
     22          1           0        1.262259   -2.643104   -0.445533
     23          1           0        3.632348   -1.964386   -0.208458
     24          1           0        2.423375    2.148509    0.094189
     25          1           0        0.051788    1.476987   -0.203523
 ---------------------------------------------------------------------

 SCF Done:  E(RHF) =  -1424.86790438     A.U. after   14 cycles

 The electronic state is 1-A.
 Alpha  occ. eigenvalues -- -104.82881 -92.24315 -20.57264 -20.57210 -15.63031
 Alpha  occ. eigenvalues --  -15.62290 -11.30924 -11.30854 -11.27860 -11.27831
 Alpha  occ. eigenvalues --  -11.26465 -11.26285 -11.26155 -11.25557 -10.56178
 Alpha  occ. eigenvalues --   -9.21040  -8.03116  -8.02786  -8.02780  -6.89648
 Alpha  occ. eigenvalues --   -6.89614  -6.89588  -1.47722  -1.35190  -1.27043
 Alpha  occ. eigenvalues --   -1.25278  -1.18559  -1.11258  -1.04111  -1.00244
 Alpha  occ. eigenvalues --   -0.98558  -0.94931  -0.86464  -0.84416  -0.80415
 Alpha  occ. eigenvalues --   -0.74255  -0.73018  -0.71146  -0.67160  -0.66737
 Alpha  occ. eigenvalues --   -0.65184  -0.64413  -0.62724  -0.61613  -0.60944
 Alpha  occ. eigenvalues --   -0.58959  -0.57671  -0.56312  -0.54690  -0.54333
 Alpha  occ. eigenvalues --   -0.53049  -0.51886  -0.51221  -0.49985  -0.49378
 Alpha  occ. eigenvalues --   -0.47741  -0.45573  -0.44762  -0.41433  -0.35856
 Alpha  occ. eigenvalues --   -0.32336
 Alpha virt. eigenvalues --    0.11857   0.12154   0.18542   0.20807   0.21077
 Alpha virt. eigenvalues --    0.24634   0.25106   0.26467   0.27101   0.27913
 Alpha virt. eigenvalues --    0.28539   0.29395   0.30033   0.31429   0.31888

 Mulliken atomic charges:
              1
     1  C   -0.322638
     2  N   -0.737818
     3  C   -0.326968
     4  S    1.802550
     5  O   -0.676434
     6  O   -0.690661
     7  N   -0.978720
     8  C    0.312933
     9  C   -0.237980
    10  C   -0.172417
    11  C   -0.145587
    12  Cl  -0.004084
    13  C   -0.175243
    14  C   -0.213225
    15  H    0.190649
    16  H    0.190006
    17  H    0.213750
    18  H    0.189134
    19  H    0.236158
    20  H    0.178747
    21  H    0.420732
    22  H    0.216697
    23  H    0.237688
    24  H    0.236886
    25  H    0.255845
 Sum of Mulliken atomic charges =   0.00000

 Dipole moment (field-independent basis, Debye):
    X=             -1.1839    Y=              1.3577    Z=             -3.2198  Tot=              3.6894
 Quadrupole moment (field-independent basis, Debye-Ang):
   XX=           -104.5069   YY=            -87.0303   ZZ=           -102.8211
   XY=            -14.9517   XZ=              5.9603   YZ=              2.7504

 Normal termination of Gaussian 09 at Fri Aug 24 15:37:43 2018.
