 Gaussian 09, Revision C.01,
 Gaussian 09:  AM64L-G09RevC.01 23-Sep-2011

 ---------------------------------------------------------
 #B3LYP/6-31G* Integral=(Grid=UltraFine) freq Opt pop=none
 ---------------------------------------------------------

 99/9=1/99;
 -----------------------------
 Optimization for frag52-conf1
 -----------------------------
 Charge =  0 Multiplicity = 1

 SCF Done:  E(RB3LYP) =  -550.970667742     A.U. after   15 cycles
 SCF Done:  E(RB3LYP) =  -550.973368670     A.U. after   13 cycles
 SCF Done:  E(RB3LYP) =  -550.973701118     A.U. after   12 cycles
 SCF Done:  E(RB3LYP) =  -550.973761764     A.U. after   12 cycles
 SCF Done:  E(RB3LYP) =  -550.973809134     A.U. after   12 cycles
 SCF Done:  E(RB3LYP) =  -550.973842306     A.U. after   11 cycles
 SCF Done:  E(RB3LYP) =  -550.973922873     A.U. after   14 cycles
 SCF Done:  E(RB3LYP) =  -550.973972848     A.U. after   13 cycles
 SCF Done:  E(RB3LYP) =  -550.974047640     A.U. after   14 cycles
 SCF Done:  E(RB3LYP) =  -550.974074073     A.U. after   12 cycles
 SCF Done:  E(RB3LYP) =  -550.975606533     A.U. after   11 cycles
 SCF Done:  E(RB3LYP) =  -550.975637728     A.U. after   11 cycles
 SCF Done:  E(RB3LYP) =  -550.975664317     A.U. after   11 cycles
 SCF Done:  E(RB3LYP) =  -550.975668245     A.U. after   10 cycles
 SCF Done:  E(RB3LYP) =  -550.975670347     A.U. after   10 cycles
 SCF Done:  E(RB3LYP) =  -550.975671830     A.U. after   10 cycles
 SCF Done:  E(RB3LYP) =  -550.975673992     A.U. after   10 cycles
 SCF Done:  E(RB3LYP) =  -550.975674450     A.U. after    8 cycles
 SCF Done:  E(RB3LYP) =  -550.975674483     A.U. after    7 cycles
 Optimization completed.
    -- Stationary point found.
 Normal termination of Gaussian 09 at Fri Feb 16 22:18:13 2018.

 --------------------------------------------------------------------
 #N Geom=AllCheck Guess=TCheck SCRF=Check GenChk RB3LYP/6-31G(d) Freq
 --------------------------------------------------------------------

 Structure from the checkpoint file:  frag52-conf1.chk
 -----------------------------
 Optimization for frag52-conf1
 -----------------------------
 Charge =  0 Multiplicity = 1

                         Standard orientation:
 ---------------------------------------------------------------------
 Center     Atomic      Atomic             Coordinates (Angstroms)
 Number     Number       Type             X           Y           Z
 ---------------------------------------------------------------------
      1          6           0        0.542804    1.128111   -0.296426
      2          6           0        1.673798   -0.959575    0.036350
      3          6           0        1.786714    1.742978   -0.217539
      4          6           0        0.485097   -0.268787   -0.164555
      5          6           0        2.885913   -0.240192    0.095478
      6          6           0       -3.120743   -0.105128   -0.038454
      7          6           0       -4.118846    0.530927    0.918289
      8          6           0       -0.828621   -1.017177   -0.266952
      9          7           0        2.942255    1.094582   -0.020701
     10          7           0        4.098465   -0.892199    0.237699
     11          7           0       -1.897108   -0.402032    0.503737
     12          8           0       -3.401261   -0.335766   -1.207606
     13          1           0       -0.357799    1.712272   -0.453720
     14          1           0        1.675196   -2.042470    0.138715
     15          1           0        1.868504    2.824940   -0.313171
     16          1           0       -4.474048    1.468913    0.481541
     17          1           0       -4.985042   -0.131183    1.015771
     18          1           0       -3.713141    0.732224    1.914895
     19          1           0       -1.187286   -1.031318   -1.301775
     20          1           0       -0.684612   -2.061827    0.040774
     21          1           0        4.089931   -1.785411    0.710611
     22          1           0        4.858943   -0.282294    0.509900
     23          1           0       -1.722537   -0.187115    1.475009
 ---------------------------------------------------------------------

 SCF Done:  E(RB3LYP) =  -550.975674483     A.U. after    1 cycles

 Isotropic polarizability for W=    0.000000      104.97 Bohr**3.
 End of Minotr Frequency-dependent properties file   721 does not exist.

                     1                      2                      3
                     A                      A                      A
 Frequencies --    20.4653                28.3405                51.3795
 Red. masses --     4.4689                 3.8970                 1.3336
 Frc consts  --     0.0011                 0.0018                 0.0021
 IR Inten    --     2.2990                 1.0924                 5.0600

                     4                      5                      6
                     A                      A                      A
 Frequencies --    73.2334               185.7669               198.1831
 Red. masses --     2.5014                 4.1982                 5.0078
 Frc consts  --     0.0079                 0.0854                 0.1159
 IR Inten    --     4.6800                 6.5638                 8.4432

                     7                      8                      9
                     A                      A                      A
 Frequencies --   210.3914               273.5242               294.1146
 Red. masses --     4.2326                 5.3529                 2.3110
 Frc consts  --     0.1104                 0.2360                 0.1178
 IR Inten    --     3.9867                 0.2945                 6.0299

                    10                     11                     12
                     A                      A                      A
 Frequencies --   378.1727               418.7586               437.9431
 Red. masses --     1.1657                 2.8052                 1.4282
 Frc consts  --     0.0982                 0.2898                 0.1614
 IR Inten    --    55.6975                 1.7599                84.7622

                    13                     14                     15
                     A                      A                      A
 Frequencies --   452.1488               487.1640               529.9783
 Red. masses --     2.0932                 2.7797                 2.1219
 Frc consts  --     0.2521                 0.3887                 0.3511
 IR Inten    --    45.4850                65.6455               114.1239

                    16                     17                     18
                     A                      A                      A
 Frequencies --   572.2047               581.3678               627.2057
 Red. masses --     3.5778                 2.4627                 2.8125
 Frc consts  --     0.6902                 0.4904                 0.6519
 IR Inten    --    89.4454                87.3417                 3.5925

                    19                     20                     21
                     A                      A                      A
 Frequencies --   635.7006               671.2878               762.4560
 Red. masses --     3.1407                 5.3505                 3.3013
 Frc consts  --     0.7478                 1.4206                 1.1307
 IR Inten    --     0.9490                23.0650                 6.6240

                    22                     23                     24
                     A                      A                      A
 Frequencies --   793.3019               830.0002               863.8035
 Red. masses --     4.2863                 1.3898                 1.5001
 Frc consts  --     1.5893                 0.5641                 0.6595
 IR Inten    --     4.1310                22.0041                12.2920

                    25                     26                     27
                     A                      A                      A
 Frequencies --   901.1819               963.3231               976.2494
 Red. masses --     2.7484                 4.0108                 1.3484
 Frc consts  --     1.3151                 2.1929                 0.7572
 IR Inten    --     6.9961                 4.9044                 0.2535

                    28                     29                     30
                     A                      A                      A
 Frequencies --  1005.5092              1008.3176              1051.2592
 Red. masses --     2.2718                 2.9924                 2.3604
 Frc consts  --     1.3533                 1.7925                 1.5369
 IR Inten    --     6.0523                 7.6773                20.8636

                    31                     32                     33
                     A                      A                      A
 Frequencies --  1067.8426              1082.8121              1126.5379
 Red. masses --     1.6951                 1.5839                 3.4130
 Frc consts  --     1.1388                 1.0942                 2.5519
 IR Inten    --     6.6098                 0.1239                 9.6921

                    34                     35                     36
                     A                      A                      A
 Frequencies --  1160.1779              1204.8391              1259.8095
 Red. masses --     1.2972                 1.8464                 1.2803
 Frc consts  --     1.0287                 1.5792                 1.1972
 IR Inten    --     0.2969                 8.3733                 1.8593

                    37                     38                     39
                     A                      A                      A
 Frequencies --  1278.7877              1328.0533              1346.8299
 Red. masses --     1.8241                 4.0587                 1.6914
 Frc consts  --     1.7575                 4.2176                 1.8076
 IR Inten    --   181.3234                29.1016                16.7944

                    40                     41                     42
                     A                      A                      A
 Frequencies --  1363.3633              1397.5340              1427.0146
 Red. masses --     2.1371                 1.4519                 1.2635
 Frc consts  --     2.3404                 1.6707                 1.5160
 IR Inten    --    11.1654                 6.0361                27.7471

                    43                     44                     45
                     A                      A                      A
 Frequencies --  1484.0087              1501.0680              1516.2849
 Red. masses --     3.4342                 1.0459                 1.0716
 Frc consts  --     4.4561                 1.3885                 1.4516
 IR Inten    --   162.8126                 5.6963                20.9262

                    46                     47                     48
                     A                      A                      A
 Frequencies --  1518.3711              1540.6118              1554.9943
 Red. masses --     1.1082                 2.3006                 1.9508
 Frc consts  --     1.5053                 3.2172                 2.7792
 IR Inten    --    15.4672                17.7462               228.1761

                    49                     50                     51
                     A                      A                      A
 Frequencies --  1621.2581              1657.4849              1677.1312
 Red. masses --     6.0144                 2.0696                 2.0196
 Frc consts  --     9.3142                 3.3500                 3.3470
 IR Inten    --    49.6715                33.1064               348.8968

                    52                     53                     54
                     A                      A                      A
 Frequencies --  1787.8855              3036.1364              3064.1057
 Red. masses --     9.2291                 1.0688                 1.0359
 Frc consts  --    17.3815                 5.8050                 5.7300
 IR Inten    --   251.2527                39.1990                 8.8650

                    55                     56                     57
                     A                      A                      A
 Frequencies --  3105.4863              3137.7573              3144.0366
 Red. masses --     1.0934                 1.1030                 1.1018
 Frc consts  --     6.2129                 6.3981                 6.4168
 IR Inten    --    12.7000                16.1357                 9.1973

                    58                     59                     60
                     A                      A                      A
 Frequencies --  3167.4193              3177.8132              3218.0712
 Red. masses --     1.0894                 1.0905                 1.0929
 Frc consts  --     6.4395                 6.4885                 6.6682
 IR Inten    --    34.9601                11.4492                 8.0941

                    61                     62                     63
                     A                      A                      A
 Frequencies --  3567.7280              3627.9097              3679.7209
 Red. masses --     1.0468                 1.0776                 1.1003
 Frc consts  --     7.8505                 8.3568                 8.7779
 IR Inten    --    33.9209                17.4195                20.0688

 - Thermochemistry -
 -------------------
 Temperature   298.150 Kelvin.  Pressure   1.00000 Atm.
 Atom     1 has atomic number  6 and mass  12.00000

 Molecular mass:   165.09021 amu.
 Principal axes and moments of inertia in atomic units:
                           1         2         3
     Eigenvalues --   675.747874501.485754816.46693
           X            0.99989  -0.01215  -0.00874
           Y            0.01212   0.99992  -0.00338
           Z            0.00878   0.00327   0.99996
 This molecule is an asymmetric top.
 Rotational symmetry number  1.
 Warning -- assumption of classical behavior for rotation
           may cause significant error
 Rotational temperatures (Kelvin)      0.12817     0.01924     0.01798
 Rotational constants (GHZ):           2.67073     0.40092     0.37470
 Zero-point vibrational energy     497117.9 (Joules/Mol)
                                  118.81402 (Kcal/Mol)
 Warning -- explicit consideration of  17 degrees of freedom as
           vibrations may cause significant error
 Vibrational temperatures:     29.44    40.78    73.92   105.37   267.28
          (Kelvin)            285.14   302.71   393.54   423.16   544.11
                              602.50   630.10   650.54   700.92   762.52
                              823.27   836.46   902.41   914.63   965.83
                             1097.00  1141.38  1194.18  1242.82  1296.60
                             1386.01  1404.60  1446.70  1450.74  1512.53
                             1536.39  1557.92  1620.83  1669.24  1733.49
                             1812.58  1839.89  1910.77  1937.79  1961.57
                             2010.74  2053.15  2135.15  2159.70  2181.59
                             2184.59  2216.59  2237.29  2332.63  2384.75
                             2413.01  2572.37  4368.32  4408.56  4468.10
                             4514.53  4523.56  4557.20  4572.16  4630.08
                             5133.16  5219.75  5294.29

 Zero-point correction=                           0.189342 (Hartree/Particle)
 Thermal correction to Energy=                    0.201259
 Thermal correction to Enthalpy=                  0.202203
 Thermal correction to Gibbs Free Energy=         0.148977
 Sum of electronic and zero-point Energies=           -550.786332
 Sum of electronic and thermal Energies=              -550.774416
 Sum of electronic and thermal Enthalpies=            -550.773471
 Sum of electronic and thermal Free Energies=         -550.826697

                     E (Thermal)             CV                S
                      KCal/Mol        Cal/Mol-Kelvin    Cal/Mol-Kelvin
 Total                  126.292             43.645            112.023
 Electronic               0.000              0.000              0.000
 Translational            0.889              2.981             41.212
 Rotational               0.889              2.981             31.061
 Vibrational            124.514             37.683             39.750
 Vibration     1          0.593              1.986              6.589
 Vibration     2          0.593              1.984              5.942
 Vibration     3          0.596              1.977              4.764
 Vibration     4          0.599              1.967              4.065
 Vibration     5          0.632              1.859              2.270
 Vibration     6          0.637              1.842              2.150
 Vibration     7          0.643              1.825              2.040
 Vibration     8          0.676              1.722              1.574
 Vibration     9          0.689              1.685              1.450
 Vibration    10          0.748              1.517              1.046
 Vibration    11          0.782              1.429              0.896
 Vibration    12          0.798              1.387              0.833
 Vibration    13          0.811              1.356              0.789
 Vibration    14          0.843              1.279              0.691
 Vibration    15          0.885              1.184              0.587
 Vibration    16          0.928              1.091              0.500
 Vibration    17          0.938              1.072              0.483

 Optimization completed.
    -- Stationary point found.
 Normal termination of Gaussian 09 at Fri Feb 16 22:33:47 2018.
