 Gaussian 09, Revision C.01,
 Gaussian 09:  AM64L-G09RevC.01 23-Sep-2011

 ----------------------------------------------------------------------
 #HF/6-31G* Geom=AllCheck Guess=Read Pop=(MK,ReadRadii) Integral=(Grid=
 UltraFine) iop(6/33=2)
 ----------------------------------------------------------------------

 Structure from the checkpoint file:  frag52-conf1.chk
 -----------------------------
 Optimization for frag52-conf1
 -----------------------------
 Charge =  0 Multiplicity = 1

                         Standard orientation:
 ---------------------------------------------------------------------
 Center     Atomic      Atomic             Coordinates (Angstroms)
 Number     Number       Type             X           Y           Z
 ---------------------------------------------------------------------
      1          6           0        0.542804    1.128111   -0.296426
      2          6           0        1.673798   -0.959575    0.036350
      3          6           0        1.786714    1.742978   -0.217539
      4          6           0        0.485097   -0.268787   -0.164555
      5          6           0        2.885913   -0.240192    0.095478
      6          6           0       -3.120743   -0.105128   -0.038454
      7          6           0       -4.118846    0.530927    0.918289
      8          6           0       -0.828621   -1.017177   -0.266952
      9          7           0        2.942255    1.094582   -0.020701
     10          7           0        4.098465   -0.892199    0.237699
     11          7           0       -1.897108   -0.402032    0.503737
     12          8           0       -3.401261   -0.335766   -1.207606
     13          1           0       -0.357799    1.712272   -0.453720
     14          1           0        1.675196   -2.042470    0.138715
     15          1           0        1.868504    2.824940   -0.313171
     16          1           0       -4.474048    1.468913    0.481541
     17          1           0       -4.985042   -0.131183    1.015771
     18          1           0       -3.713141    0.732224    1.914895
     19          1           0       -1.187286   -1.031318   -1.301775
     20          1           0       -0.684612   -2.061827    0.040774
     21          1           0        4.089931   -1.785411    0.710611
     22          1           0        4.858943   -0.282294    0.509900
     23          1           0       -1.722537   -0.187115    1.475009
 ---------------------------------------------------------------------

 SCF Done:  E(RHF) =  -547.582172406     A.U. after   14 cycles

 The electronic state is 1-A.
 Alpha  occ. eigenvalues --  -20.52411 -15.59668 -15.57232 -15.55270 -11.35910
 Alpha  occ. eigenvalues --  -11.31857 -11.27739 -11.27508 -11.26679 -11.24323
 Alpha  occ. eigenvalues --  -11.23324 -11.22430  -1.37686  -1.27780  -1.23520
 Alpha  occ. eigenvalues --   -1.18330  -1.09820  -1.01524  -1.00374  -0.94482
 Alpha  occ. eigenvalues --   -0.85266  -0.82008  -0.79338  -0.71870  -0.70222
 Alpha  occ. eigenvalues --   -0.67948  -0.66015  -0.65576  -0.62406  -0.61657
 Alpha  occ. eigenvalues --   -0.60234  -0.58065  -0.57548  -0.56805  -0.55360
 Alpha  occ. eigenvalues --   -0.54272  -0.52260  -0.50385  -0.45403  -0.42218
 Alpha  occ. eigenvalues --   -0.41437  -0.39728  -0.36678  -0.30529
 Alpha virt. eigenvalues --    0.12415   0.15357   0.19314   0.21543   0.22902
 Alpha virt. eigenvalues --    0.25649   0.26409   0.27751   0.28995   0.31038
 Alpha virt. eigenvalues --    0.31206   0.32659   0.33262   0.33859   0.36142

 Mulliken atomic charges:
              1
     1  C   -0.298331
     2  C   -0.331694
     3  C    0.089379
     4  C    0.079804
     5  C    0.584646
     6  C    0.758640
     7  C   -0.577768
     8  C   -0.137783
     9  N   -0.617844
    10  N   -0.899081
    11  N   -0.810712
    12  O   -0.620342
    13  H    0.210618
    14  H    0.200205
    15  H    0.203687
    16  H    0.210613
    17  H    0.209707
    18  H    0.167283
    19  H    0.254863
    20  H    0.184337
    21  H    0.367344
    22  H    0.384445
    23  H    0.387983
 Sum of Mulliken atomic charges =   0.00000

 Dipole moment (field-independent basis, Debye):
    X=              0.3773    Y=             -0.9438    Z=              4.6746  Tot=              4.7839
 Quadrupole moment (field-independent basis, Debye-Ang):
   XX=            -74.3888   YY=            -65.4424   ZZ=            -73.8763
   XY=             -9.6389   XZ=             -5.8325   YZ=             -3.1209

 Normal termination of Gaussian 09 at Sat Feb 17 21:06:20 2018.
