 Gaussian 09, Revision C.01,
 Gaussian 09:  AM64L-G09RevC.01 23-Sep-2011

 ---------------------------------------------------------
 #B3LYP/6-31G* Integral=(Grid=UltraFine) freq Opt pop=none
 ---------------------------------------------------------

 99/9=1/99;
 -----------------------------
 Optimization for frag48-conf1
 -----------------------------
 Charge =  0 Multiplicity = 1

 SCF Done:  E(RB3LYP) =  -1162.10652855     A.U. after   15 cycles
 SCF Done:  E(RB3LYP) =  -1162.11160282     A.U. after   13 cycles
 SCF Done:  E(RB3LYP) =  -1162.11260397     A.U. after   12 cycles
 SCF Done:  E(RB3LYP) =  -1162.11361492     A.U. after   13 cycles
 SCF Done:  E(RB3LYP) =  -1162.11413228     A.U. after   13 cycles
 SCF Done:  E(RB3LYP) =  -1162.11460183     A.U. after   12 cycles
 SCF Done:  E(RB3LYP) =  -1162.11480795     A.U. after   12 cycles
 SCF Done:  E(RB3LYP) =  -1162.11492209     A.U. after   11 cycles
 SCF Done:  E(RB3LYP) =  -1162.11496892     A.U. after   12 cycles
 SCF Done:  E(RB3LYP) =  -1162.11499743     A.U. after   12 cycles
 SCF Done:  E(RB3LYP) =  -1162.11516743     A.U. after   11 cycles
 SCF Done:  E(RB3LYP) =  -1162.11517447     A.U. after   11 cycles
 SCF Done:  E(RB3LYP) =  -1162.11517734     A.U. after   11 cycles
 SCF Done:  E(RB3LYP) =  -1162.11518113     A.U. after   11 cycles
 SCF Done:  E(RB3LYP) =  -1162.11518175     A.U. after    9 cycles
 SCF Done:  E(RB3LYP) =  -1162.11518194     A.U. after    8 cycles
 SCF Done:  E(RB3LYP) =  -1162.11518204     A.U. after    8 cycles
 SCF Done:  E(RB3LYP) =  -1162.11518209     A.U. after    8 cycles
 SCF Done:  E(RB3LYP) =  -1162.11518212     A.U. after    7 cycles
 Optimization completed.
    -- Stationary point found.
 Normal termination of Gaussian 09 at Fri Feb 16 22:47:08 2018.

 --------------------------------------------------------------------
 #N Geom=AllCheck Guess=TCheck SCRF=Check GenChk RB3LYP/6-31G(d) Freq
 --------------------------------------------------------------------

 Structure from the checkpoint file:  frag48-conf1.chk
 -----------------------------
 Optimization for frag48-conf1
 -----------------------------
 Charge =  0 Multiplicity = 1

                         Standard orientation:
 ---------------------------------------------------------------------
 Center     Atomic      Atomic             Coordinates (Angstroms)
 Number     Number       Type             X           Y           Z
 ---------------------------------------------------------------------
      1          6           0        4.435749   -0.384078    0.191904
      2          6           0        3.751789   -0.013688   -0.966871
      3          6           0        3.790486   -1.160339    1.155622
      4          6           0        2.430756   -0.417595   -1.161131
      5          6           0        2.469519   -1.562143    0.957992
      6          6           0        1.772436   -1.194690   -0.200177
      7          6           0       -2.161394   -1.101536    0.253903
      8          6           0       -3.809448   -2.837054   -0.360960
      9          6           0       -2.267061    2.626001    0.478971
     10          6           0        0.333644   -1.625979   -0.389482
     11          6           0       -0.700883   -0.598731    0.137479
     12          7           0       -2.474898   -2.259366   -0.390798
     13          7           0       -0.656137    0.627819   -0.656357
     14          8           0       -2.990322   -0.441988    0.875977
     15          8           0       -0.181846    3.042628   -1.092905
     16          8           0        0.197674    2.046187    1.241348
     17         16           0       -0.584729    2.169349    0.010969
     18          1           0        5.464932   -0.069821    0.342909
     19          1           0        4.245257    0.592882   -1.721375
     20          1           0        4.314993   -1.455584    2.060499
     21          1           0        1.903660   -0.119159   -2.062997
     22          1           0        1.973819   -2.169884    1.712660
     23          1           0       -3.812700   -3.799753    0.163488
     24          1           0       -4.191769   -2.985884   -1.376952
     25          1           0       -4.456854   -2.138753    0.170094
     26          1           0       -2.198003    3.578481    1.009843
     27          1           0       -2.863118    2.742417   -0.428502
     28          1           0       -2.677046    1.837484    1.110957
     29          1           0        0.141907   -1.815410   -1.455440
     30          1           0        0.173821   -2.572240    0.143701
     31          1           0       -0.408928   -0.310549    1.151449
     32          1           0       -1.743832   -2.770440   -0.862021
     33          1           0       -1.070837    0.611838   -1.582589
 ---------------------------------------------------------------------

 SCF Done:  E(RB3LYP) =  -1162.11518212     A.U. after    1 cycles

 Isotropic polarizability for W=    0.000000      148.69 Bohr**3.
 End of Minotr Frequency-dependent properties file   721 does not exist.

                     1                      2                      3
                     A                      A                      A
 Frequencies --    12.9539                22.6892                36.4113
 Red. masses --     6.5781                 3.9552                 5.7270
 Frc consts  --     0.0007                 0.0012                 0.0045
 IR Inten    --     0.4960                 0.5119                 3.4783

                     4                      5                      6
                     A                      A                      A
 Frequencies --    49.6111                55.6967                64.0065
 Red. masses --     4.6271                 1.1108                 3.6191
 Frc consts  --     0.0067                 0.0020                 0.0087
 IR Inten    --     2.2389                 1.0907                 2.7038

                     7                      8                      9
                     A                      A                      A
 Frequencies --   105.3661               137.3741               140.9529
 Red. masses --     4.8082                 3.8854                 5.2536
 Frc consts  --     0.0315                 0.0432                 0.0615
 IR Inten    --     5.5037                 1.7627                 3.7012

                    10                     11                     12
                     A                      A                      A
 Frequencies --   177.6556               203.3539               215.6500
 Red. masses --     3.8741                 3.0884                 1.2593
 Frc consts  --     0.0720                 0.0752                 0.0345
 IR Inten    --     5.3944                 2.7886                 2.5659

                    13                     14                     15
                     A                      A                      A
 Frequencies --   237.9876               268.9436               309.9744
 Red. masses --     4.4858                 4.5031                 2.5250
 Frc consts  --     0.1497                 0.1919                 0.1429
 IR Inten    --     7.3084                 1.7099                20.8882

                    16                     17                     18
                     A                      A                      A
 Frequencies --   323.6502               347.5579               367.8376
 Red. masses --     3.8617                 3.2493                 1.8208
 Frc consts  --     0.2383                 0.2313                 0.1452
 IR Inten    --    10.6491                 4.0501                63.7053

                    19                     20                     21
                     A                      A                      A
 Frequencies --   391.7279               415.9695               418.3680
 Red. masses --     2.8106                 3.0923                 3.0589
 Frc consts  --     0.2541                 0.3153                 0.3155
 IR Inten    --     4.8212                10.6285                25.1642

                    22                     23                     24
                     A                      A                      A
 Frequencies --   456.2708               490.1252               498.8520
 Red. masses --     4.1157                 6.5236                 4.6007
 Frc consts  --     0.5048                 0.9233                 0.6745
 IR Inten    --    13.9179                23.3902                75.8923

                    25                     26                     27
                     A                      A                      A
 Frequencies --   508.8885               558.6786               578.7025
 Red. masses --     1.3462                 3.5304                 5.4034
 Frc consts  --     0.2054                 0.6492                 1.0662
 IR Inten    --    49.9342                 9.7734                 7.0430

                    28                     29                     30
                     A                      A                      A
 Frequencies --   636.6453               676.9151               711.7129
 Red. masses --     6.2609                 3.7163                 2.0504
 Frc consts  --     1.4951                 1.0033                 0.6119
 IR Inten    --     0.0547                 3.5518                23.6036

                    31                     32                     33
                     A                      A                      A
 Frequencies --   721.2033               761.1282               776.1686
 Red. masses --     3.5982                 3.0660                 2.8284
 Frc consts  --     1.1027                 1.0465                 1.0039
 IR Inten    --    14.8569               107.6548                10.9199

                    34                     35                     36
                     A                      A                      A
 Frequencies --   826.4176               842.6696               854.5228
 Red. masses --     3.1333                 3.7408                 1.2535
 Frc consts  --     1.2608                 1.5651                 0.5393
 IR Inten    --    31.2840                 8.1470                 0.0227

                    37                     38                     39
                     A                      A                      A
 Frequencies --   891.2032               929.8967               938.6101
 Red. masses --     2.4084                 1.7361                 2.2591
 Frc consts  --     1.1270                 0.8845                 1.1726
 IR Inten    --     2.4138                 7.6451                28.8798

                    40                     41                     42
                     A                      A                      A
 Frequencies --   962.3786               994.4707              1005.5556
 Red. masses --     1.3534                 1.2597                 1.4530
 Frc consts  --     0.7385                 0.7340                 0.8656
 IR Inten    --     0.0822                 0.0662                54.6770

                    43                     44                     45
                     A                      A                      A
 Frequencies --  1018.4678              1019.2210              1057.5811
 Red. masses --     1.5527                 4.0910                 2.4501
 Frc consts  --     0.9489                 2.5039                 1.6146
 IR Inten    --    24.4065                 3.5049                 3.3553

                    46                     47                     48
                     A                      A                      A
 Frequencies --  1061.1386              1081.2670              1111.0301
 Red. masses --     2.2512                 5.1881                 3.0951
 Frc consts  --     1.4935                 3.5738                 2.2510
 IR Inten    --    10.9480                28.7474                45.3035

                    49                     50                     51
                     A                      A                      A
 Frequencies --  1122.4724              1138.0911              1160.3499
 Red. masses --     1.9964                 6.5455                 1.2843
 Frc consts  --     1.4820                 4.9952                 1.0188
 IR Inten    --    73.6617               130.3306                 4.0059

                    52                     53                     54
                     A                      A                      A
 Frequencies --  1179.9913              1193.6936              1216.0006
 Red. masses --     1.6267                 1.1004                 1.1570
 Frc consts  --     1.3345                 0.9238                 1.0080
 IR Inten    --    32.3401                 0.0116                 0.1911

                    55                     56                     57
                     A                      A                      A
 Frequencies --  1227.7696              1233.8016              1275.8702
 Red. masses --     1.3449                 2.6041                 1.7834
 Frc consts  --     1.1945                 2.3356                 1.7105
 IR Inten    --     5.8468                 7.8896                68.3580

                    58                     59                     60
                     A                      A                      A
 Frequencies --  1294.6812              1324.0104              1349.6489
 Red. masses --     1.4499                 1.7744                 3.6374
 Frc consts  --     1.4319                 1.8327                 3.9038
 IR Inten    --    13.7617                28.9036               132.6857

                    61                     62                     63
                     A                      A                      A
 Frequencies --  1364.3008              1373.4043              1383.1206
 Red. masses --     3.7107                 1.3271                 1.3367
 Frc consts  --     4.0694                 1.4749                 1.5066
 IR Inten    --     2.1574                 0.6968                 2.5732

                    64                     65                     66
                     A                      A                      A
 Frequencies --  1384.9164              1458.7950              1460.6132
 Red. masses --     1.2041                 1.1795                 1.2883
 Frc consts  --     1.3607                 1.4789                 1.6194
 IR Inten    --    12.7575                27.2383                40.8845

                    67                     68                     69
                     A                      A                      A
 Frequencies --  1484.1085              1492.9944              1503.8569
 Red. masses --     1.0876                 1.0505                 2.1769
 Frc consts  --     1.4114                 1.3796                 2.9007
 IR Inten    --    19.1560                11.3986                 6.0978

                    70                     71                     72
                     A                      A                      A
 Frequencies --  1518.1053              1526.3269              1530.7444
 Red. masses --     1.1756                 1.1004                 1.0482
 Frc consts  --     1.5963                 1.5105                 1.4471
 IR Inten    --    75.9926                 2.0966                 8.1560

                    73                     74                     75
                     A                      A                      A
 Frequencies --  1548.1711              1588.5822              1646.7703
 Red. masses --     2.2082                 1.6590                 5.4701
 Frc consts  --     3.1184                 2.4667                 8.7400
 IR Inten    --     9.0637               171.1613                 0.9488

                    76                     77                     78
                     A                      A                      A
 Frequencies --  1666.5904              1767.4237              3022.3978
 Red. masses --     5.6009                 9.3819                 1.0610
 Frc consts  --     9.1658                17.2671                 5.7102
 IR Inten    --     2.5675               232.5998                42.6545

                    79                     80                     81
                     A                      A                      A
 Frequencies --  3052.6323              3069.4769              3083.2135
 Red. masses --     1.0370                 1.1008                 1.0292
 Frc consts  --     5.6935                 6.1104                 5.7647
 IR Inten    --    62.1010                16.4971                 7.0865

                    82                     83                     84
                     A                      A                      A
 Frequencies --  3106.7730              3112.2022              3169.4428
 Red. masses --     1.1059                 1.0848                 1.0875
 Frc consts  --     6.2888                 6.1905                 6.4364
 IR Inten    --    27.3127                 3.0071                11.0337

                    85                     86                     87
                     A                      A                      A
 Frequencies --  3179.8666              3182.4345              3184.1297
 Red. masses --     1.1065                 1.0986                 1.0860
 Frc consts  --     6.5923                 6.5553                 6.4871
 IR Inten    --     2.0970                 0.8291                 1.2158

                    88                     89                     90
                     A                      A                      A
 Frequencies --  3192.9141              3201.6352              3202.1396
 Red. masses --     1.0900                 1.0940                 1.1081
 Frc consts  --     6.5472                 6.6073                 6.6941
 IR Inten    --    13.8180                39.1692                 7.3228

                    91                     92                     93
                     A                      A                      A
 Frequencies --  3211.4618              3571.3006              3645.0549
 Red. masses --     1.0979                 1.0761                 1.0770
 Frc consts  --     6.6712                 8.0863                 8.4312
 IR Inten    --    16.1093                20.1463                25.6882

 - Thermochemistry -
 -------------------
 Temperature   298.150 Kelvin.  Pressure   1.00000 Atm.
 Atom     1 has atomic number  6 and mass  12.00000

 Molecular mass:   256.08816 amu.
 Principal axes and moments of inertia in atomic units:
                           1         2         3
     Eigenvalues --  3468.661925747.918338127.69805
           X            0.99984   0.01708   0.00453
           Y           -0.01710   0.99984   0.00527
           Z           -0.00444  -0.00534   0.99998
 This molecule is an asymmetric top.
 Rotational symmetry number  1.
 Warning -- assumption of classical behavior for rotation
           may cause significant error
 Rotational temperatures (Kelvin)      0.02497     0.01507     0.01066
 Rotational constants (GHZ):           0.52030     0.31398     0.22205
 Zero-point vibrational energy     705053.5 (Joules/Mol)
                                  168.51183 (Kcal/Mol)
 Warning -- explicit consideration of  27 degrees of freedom as
           vibrations may cause significant error
 Vibrational temperatures:     18.64    32.64    52.39    71.38    80.14
          (Kelvin)             92.09   151.60   197.65   202.80   255.61
                              292.58   310.27   342.41   386.95   445.98
                              465.66   500.06   529.24   563.61   598.49
                              601.94   656.47   705.18   717.74   732.18
                              803.81   832.62   915.99   973.93  1023.99
                             1037.65  1095.09  1116.73  1189.03  1212.41
                             1229.47  1282.24  1337.91  1350.45  1384.65
                             1430.82  1446.77  1465.35  1466.43  1521.62
                             1526.74  1555.70  1598.52  1614.99  1637.46
                             1669.48  1697.74  1717.46  1749.55  1766.48
                             1775.16  1835.69  1862.76  1904.95  1941.84
                             1962.92  1976.02  1990.00  1992.58  2098.88
                             2101.49  2135.30  2148.08  2163.71  2184.21
                             2196.04  2202.40  2227.47  2285.61  2369.33
                             2397.85  2542.93  4348.55  4392.05  4416.29
                             4436.05  4469.95  4477.76  4560.12  4575.11
                             4578.81  4581.25  4593.89  4606.43  4607.16
                             4620.57  5138.30  5244.41

 Zero-point correction=                           0.268541 (Hartree/Particle)
 Thermal correction to Energy=                    0.286482
 Thermal correction to Enthalpy=                  0.287427
 Thermal correction to Gibbs Free Energy=         0.219241
 Sum of electronic and zero-point Energies=          -1161.846641
 Sum of electronic and thermal Energies=             -1161.828700
 Sum of electronic and thermal Enthalpies=           -1161.827756
 Sum of electronic and thermal Free Energies=        -1161.895941

                     E (Thermal)             CV                S
                      KCal/Mol        Cal/Mol-Kelvin    Cal/Mol-Kelvin
 Total                  179.770             65.414            143.508
 Electronic               0.000              0.000              0.000
 Translational            0.889              2.981             42.521
 Rotational               0.889              2.981             33.449
 Vibrational            177.993             59.452             67.538
 Vibration     1          0.593              1.987              7.497
 Vibration     2          0.593              1.985              6.384
 Vibration     3          0.594              1.982              5.445
 Vibration     4          0.595              1.978              4.833
 Vibration     5          0.596              1.975              4.604
 Vibration     6          0.597              1.971              4.330
 Vibration     7          0.605              1.945              3.353
 Vibration     8          0.614              1.916              2.840
 Vibration     9          0.615              1.912              2.791
 Vibration    10          0.628              1.870              2.353
 Vibration    11          0.639              1.835              2.103
 Vibration    12          0.645              1.817              1.995
 Vibration    13          0.656              1.782              1.818
 Vibration    14          0.673              1.730              1.603
 Vibration    15          0.699              1.655              1.362
 Vibration    16          0.708              1.628              1.292
 Vibration    17          0.725              1.580              1.177
 Vibration    18          0.740              1.538              1.089
 Vibration    19          0.759              1.488              0.994
 Vibration    20          0.779              1.436              0.906
 Vibration    21          0.781              1.430              0.898
 Vibration    22          0.815              1.347              0.777
 Vibration    23          0.846              1.272              0.683
 Vibration    24          0.854              1.253              0.661
 Vibration    25          0.864              1.230              0.636
 Vibration    26          0.914              1.121              0.526
 Vibration    27          0.935              1.077              0.488

 Optimization completed.
    -- Stationary point found.
 Normal termination of Gaussian 09 at Fri Feb 16 23:41:09 2018.
