 Gaussian 09, Revision C.01,
 Gaussian 09:  AM64L-G09RevC.01 23-Sep-2011

 ----------------------------------------------------------------------
 #HF/6-31G* Geom=AllCheck Guess=Read Pop=(MK,ReadRadii) Integral=(Grid=
 UltraFine) iop(6/33=2)
 ----------------------------------------------------------------------

 Structure from the checkpoint file:  frag48-conf1.chk
 -----------------------------
 Optimization for frag48-conf1
 -----------------------------
 Charge =  0 Multiplicity = 1

                         Standard orientation:
 ---------------------------------------------------------------------
 Center     Atomic      Atomic             Coordinates (Angstroms)
 Number     Number       Type             X           Y           Z
 ---------------------------------------------------------------------
      1          6           0        4.435749   -0.384078    0.191904
      2          6           0        3.751789   -0.013688   -0.966871
      3          6           0        3.790486   -1.160339    1.155622
      4          6           0        2.430756   -0.417595   -1.161131
      5          6           0        2.469519   -1.562143    0.957992
      6          6           0        1.772436   -1.194690   -0.200177
      7          6           0       -2.161394   -1.101536    0.253903
      8          6           0       -3.809448   -2.837054   -0.360960
      9          6           0       -2.267061    2.626001    0.478971
     10          6           0        0.333644   -1.625979   -0.389482
     11          6           0       -0.700883   -0.598731    0.137479
     12          7           0       -2.474898   -2.259366   -0.390798
     13          7           0       -0.656137    0.627819   -0.656357
     14          8           0       -2.990322   -0.441988    0.875977
     15          8           0       -0.181846    3.042628   -1.092905
     16          8           0        0.197674    2.046187    1.241348
     17         16           0       -0.584729    2.169349    0.010969
     18          1           0        5.464932   -0.069821    0.342909
     19          1           0        4.245257    0.592882   -1.721375
     20          1           0        4.314993   -1.455584    2.060499
     21          1           0        1.903660   -0.119159   -2.062997
     22          1           0        1.973819   -2.169884    1.712660
     23          1           0       -3.812700   -3.799753    0.163488
     24          1           0       -4.191769   -2.985884   -1.376952
     25          1           0       -4.456854   -2.138753    0.170094
     26          1           0       -2.198003    3.578481    1.009843
     27          1           0       -2.863118    2.742417   -0.428502
     28          1           0       -2.677046    1.837484    1.110957
     29          1           0        0.141907   -1.815410   -1.455440
     30          1           0        0.173821   -2.572240    0.143701
     31          1           0       -0.408928   -0.310549    1.151449
     32          1           0       -1.743832   -2.770440   -0.862021
     33          1           0       -1.070837    0.611838   -1.582589
 ---------------------------------------------------------------------

 SCF Done:  E(RHF) =  -1156.79456711     A.U. after   14 cycles

 The electronic state is 1-A.
 Alpha  occ. eigenvalues --  -92.20548 -20.54802 -20.54689 -20.54279 -15.61375
 Alpha  occ. eigenvalues --  -15.60893 -11.37324 -11.30508 -11.27698 -11.26073
 Alpha  occ. eigenvalues --  -11.26025 -11.24534 -11.23515 -11.23355 -11.23301
 Alpha  occ. eigenvalues --  -11.23211 -11.23125  -9.17572  -6.86188  -6.86154
 Alpha  occ. eigenvalues --   -6.86038  -1.44530  -1.39507  -1.32749  -1.24929
 Alpha  occ. eigenvalues --   -1.23609  -1.15051  -1.07396  -1.02444  -1.00843
 Alpha  occ. eigenvalues --   -1.00284  -0.95826  -0.90206  -0.83468  -0.82187
 Alpha  occ. eigenvalues --   -0.80906  -0.79548  -0.74211  -0.71259  -0.69182
 Alpha  occ. eigenvalues --   -0.66922  -0.66536  -0.65586  -0.63756  -0.63528
 Alpha  occ. eigenvalues --   -0.63139  -0.62073  -0.60979  -0.58938  -0.58357
 Alpha  occ. eigenvalues --   -0.58097  -0.57530  -0.56454  -0.55711  -0.54840
 Alpha  occ. eigenvalues --   -0.52534  -0.49769  -0.49082  -0.48755  -0.48490
 Alpha  occ. eigenvalues --   -0.47947  -0.46491  -0.45626  -0.44084  -0.41078
 Alpha  occ. eigenvalues --   -0.40619  -0.32875  -0.32397
 Alpha virt. eigenvalues --    0.13949   0.14467   0.16723   0.20331   0.22326
 Alpha virt. eigenvalues --    0.23424   0.24712   0.24964   0.25358   0.27219
 Alpha virt. eigenvalues --    0.28023   0.28205   0.28914   0.29714   0.30207

 Mulliken atomic charges:
              1
     1  C   -0.199712
     2  C   -0.194751
     3  C   -0.193501
     4  C   -0.194179
     5  C   -0.214176
     6  C    0.048944
     7  C    0.783245
     8  C   -0.290968
     9  C   -0.721353
    10  C   -0.383678
    11  C   -0.063734
    12  N   -0.808038
    13  N   -0.887901
    14  O   -0.643891
    15  O   -0.687467
    16  O   -0.691624
    17  S    1.605572
    18  H    0.203410
    19  H    0.206519
    20  H    0.202806
    21  H    0.202566
    22  H    0.193838
    23  H    0.176680
    24  H    0.174532
    25  H    0.234813
    26  H    0.227171
    27  H    0.208617
    28  H    0.277047
    29  H    0.171024
    30  H    0.183559
    31  H    0.271313
    32  H    0.403782
    33  H    0.399534
 Sum of Mulliken atomic charges =   0.00000

 Dipole moment (field-independent basis, Debye):
    X=             -2.5796    Y=             -5.6784    Z=             -2.1420  Tot=              6.5945
 Quadrupole moment (field-independent basis, Debye-Ang):
   XX=           -100.4988   YY=           -107.7777   ZZ=           -108.2241
   XY=              0.2239   XZ=              6.6293   YZ=              2.5490

 1\1\GINC-NODE073\SP\RHF\6-31G(d)\C11H16N2O3S1\WULSDORT\17-Feb-2018\0\\
 #HF/6-31G* Geom=AllCheck Guess=Read Pop=(MK,ReadRadii) Integral=(Grid=
 UltraFine) iop(6/33=2)\\Optimization for frag48-conf1\\0,1\C,0,1.37375
 37422,8.2847807054,2.4310799254\C,0,2.6684561779,7.820251087,2.6671019
 82\C,0,0.3658159401,7.3789572629,2.0975509422\C,0,2.9534572213,6.45807
 9855,2.5708160553\C,0,0.6545994577,6.0177306465,2.0020260158\C,0,1.950
 8028224,5.5402367339,2.2347480233\C,0,2.7512802333,2.1136197751,0.4161
 185047\C,0,2.6845272189,-0.1678567333,1.3629938643\C,0,4.7526691874,3.

 Normal termination of Gaussian 09 at Sat Feb 17 21:06:41 2018.
