 Gaussian 09, Revision C.01,
 Gaussian 09:  AM64L-G09RevC.01 23-Sep-2011

 ----------------------------------------------------------------------
 #HF/6-31G* Geom=AllCheck Guess=Read Pop=(MK,ReadRadii) Integral=(Grid=
 UltraFine) iop(6/33=2)
 ----------------------------------------------------------------------

 Structure from the checkpoint file:  frag9-conf1.chk
 ----------------------------
 Optimization for frag9-conf1
 ----------------------------
 Charge =  0 Multiplicity = 1

                         Standard orientation:
 ---------------------------------------------------------------------
 Center     Atomic      Atomic             Coordinates (Angstroms)
 Number     Number       Type             X           Y           Z
 ---------------------------------------------------------------------
      1          6           0        3.225088   -0.736116    0.413304
      2          6           0        3.098986    0.652666    0.425816
      3          6           0        2.143856   -1.526497    0.011798
      4          6           0        1.894575    1.247494    0.040934
      5          6           0        0.943878   -0.931372   -0.373312
      6          6           0        0.807224    0.465034   -0.360529
      7          6           0       -2.516342   -0.123716    0.005289
      8          6           0       -3.519597   -0.293422    1.137216
      9          6           0       -0.507488    1.105167   -0.767093
     10          7           0       -1.592860    0.871099    0.183340
     11          8           0       -2.549763   -0.828115   -0.997922
     12          1           0        4.160886   -1.202021    0.710664
     13          1           0        3.935669    1.274593    0.733518
     14          1           0        2.239261   -2.609139   -0.006422
     15          1           0        1.801622    2.331940    0.048587
     16          1           0        0.102997   -1.541902   -0.692072
     17          1           0       -4.529062   -0.258178    0.717567
     18          1           0       -3.386123   -1.284663    1.582711
     19          1           0       -3.433389    0.463405    1.923293
     20          1           0       -0.378748    2.186737   -0.888583
     21          1           0       -0.856375    0.696099   -1.718635
     22          1           0       -1.529689    1.314930    1.088841
 ---------------------------------------------------------------------

 SCF Done:  E(RHF) =  -476.551166637     A.U. after   13 cycles

 The electronic state is 1-A.
 Alpha  occ. eigenvalues --  -20.52042 -15.59007 -11.35463 -11.26911 -11.24003
 Alpha  occ. eigenvalues --  -11.23945 -11.23637 -11.23529 -11.23460 -11.23358
 Alpha  occ. eigenvalues --  -11.22966  -1.37203  -1.22798  -1.14603  -1.04222
 Alpha  occ. eigenvalues --   -1.00904  -0.99912  -0.92086  -0.82355  -0.80310
 Alpha  occ. eigenvalues --   -0.78280  -0.70035  -0.68207  -0.64872  -0.63987
 Alpha  occ. eigenvalues --   -0.62198  -0.61121  -0.58152  -0.57724  -0.57455
 Alpha  occ. eigenvalues --   -0.55692  -0.53992  -0.51457  -0.49287  -0.48709
 Alpha  occ. eigenvalues --   -0.48329  -0.41819  -0.38852  -0.33160  -0.32438
 Alpha virt. eigenvalues --    0.13763   0.14469   0.19705   0.21749   0.24134
 Alpha virt. eigenvalues --    0.26334   0.28074   0.29565   0.31342   0.31785
 Alpha virt. eigenvalues --    0.32033   0.33542   0.34310   0.34799   0.35633

 Mulliken atomic charges:
              1
     1  C   -0.203581
     2  C   -0.196876
     3  C   -0.198561
     4  C   -0.230953
     5  C   -0.225285
     6  C    0.023703
     7  C    0.763031
     8  C   -0.575842
     9  C   -0.165327
    10  N   -0.789521
    11  O   -0.632501
    12  H    0.201209
    13  H    0.200790
    14  H    0.203970
    15  H    0.194920
    16  H    0.241636
    17  H    0.210553
    18  H    0.206277
    19  H    0.167737
    20  H    0.184306
    21  H    0.237799
    22  H    0.382518
 Sum of Mulliken atomic charges =   0.00000

 Dipole moment (field-independent basis, Debye):
    X=              0.7047    Y=              2.1105    Z=              3.0382  Tot=              3.7658
 Quadrupole moment (field-independent basis, Debye-Ang):
   XX=            -62.6579   YY=            -61.0821   ZZ=            -68.0443
   XY=             -4.3387   XZ=             -6.5036   YZ=             -1.3841

 Normal termination of Gaussian 09 at Sat Feb 17 20:56:38 2018.
