 Gaussian 09, Revision C.01,
 Gaussian 09:  AM64L-G09RevC.01 23-Sep-2011

 ---------------------------------------------------------
 #B3LYP/6-31G* Integral=(Grid=UltraFine) freq Opt pop=none
 ---------------------------------------------------------

 99/9=1/99;
 ----------------------------
 Optimization for frag9-conf1
 ----------------------------
 Charge =  0 Multiplicity = 1

 SCF Done:  E(RB3LYP) =  -479.573227291     A.U. after   15 cycles
 SCF Done:  E(RB3LYP) =  -479.574328787     A.U. after   12 cycles
 SCF Done:  E(RB3LYP) =  -479.574416427     A.U. after   10 cycles
 SCF Done:  E(RB3LYP) =  -479.574420386     A.U. after   10 cycles
 SCF Done:  E(RB3LYP) =  -479.574447754     A.U. after   10 cycles
 SCF Done:  E(RB3LYP) =  -479.574484178     A.U. after   12 cycles
 SCF Done:  E(RB3LYP) =  -479.574586166     A.U. after   15 cycles
 SCF Done:  E(RB3LYP) =  -479.574642891     A.U. after   11 cycles
 SCF Done:  E(RB3LYP) =  -479.574725063     A.U. after   13 cycles
 SCF Done:  E(RB3LYP) =  -479.574770776     A.U. after   13 cycles
 SCF Done:  E(RB3LYP) =  -479.575808534     A.U. after   16 cycles
 SCF Done:  E(RB3LYP) =  -479.576035837     A.U. after   15 cycles
 SCF Done:  E(RB3LYP) =  -479.564755149     A.U. after   14 cycles
 SCF Done:  E(RB3LYP) =  -479.576088104     A.U. after   13 cycles
 SCF Done:  E(RB3LYP) =  -479.576061095     A.U. after   13 cycles
 SCF Done:  E(RB3LYP) =  -479.576127785     A.U. after   12 cycles
 SCF Done:  E(RB3LYP) =  -479.576130747     A.U. after   10 cycles
 SCF Done:  E(RB3LYP) =  -479.576131136     A.U. after    8 cycles
 SCF Done:  E(RB3LYP) =  -479.576131179     A.U. after    7 cycles
 Optimization completed.
    -- Stationary point found.
 Normal termination of Gaussian 09 at Fri Feb 16 18:37:56 2018.

 --------------------------------------------------------------------
 #N Geom=AllCheck Guess=TCheck SCRF=Check GenChk RB3LYP/6-31G(d) Freq
 --------------------------------------------------------------------

 Structure from the checkpoint file:  frag9-conf1.chk
 ----------------------------
 Optimization for frag9-conf1
 ----------------------------
 Charge =  0 Multiplicity = 1

                         Standard orientation:
 ---------------------------------------------------------------------
 Center     Atomic      Atomic             Coordinates (Angstroms)
 Number     Number       Type             X           Y           Z
 ---------------------------------------------------------------------
      1          6           0        3.225088   -0.736116    0.413304
      2          6           0        3.098986    0.652666    0.425816
      3          6           0        2.143856   -1.526497    0.011798
      4          6           0        1.894575    1.247494    0.040934
      5          6           0        0.943878   -0.931372   -0.373312
      6          6           0        0.807224    0.465034   -0.360529
      7          6           0       -2.516342   -0.123716    0.005289
      8          6           0       -3.519597   -0.293422    1.137216
      9          6           0       -0.507488    1.105167   -0.767093
     10          7           0       -1.592860    0.871099    0.183340
     11          8           0       -2.549763   -0.828115   -0.997922
     12          1           0        4.160886   -1.202021    0.710664
     13          1           0        3.935669    1.274593    0.733518
     14          1           0        2.239261   -2.609139   -0.006422
     15          1           0        1.801622    2.331940    0.048587
     16          1           0        0.102997   -1.541902   -0.692072
     17          1           0       -4.529062   -0.258178    0.717567
     18          1           0       -3.386123   -1.284663    1.582711
     19          1           0       -3.433389    0.463405    1.923293
     20          1           0       -0.378748    2.186737   -0.888583
     21          1           0       -0.856375    0.696099   -1.718635
     22          1           0       -1.529689    1.314930    1.088841
 ---------------------------------------------------------------------

 SCF Done:  E(RB3LYP) =  -479.576131179     A.U. after    1 cycles

 Isotropic polarizability for W=    0.000000       97.36 Bohr**3.
 End of Minotr Frequency-dependent properties file   721 does not exist.

                     1                      2                      3
                     A                      A                      A
 Frequencies --    31.3158                47.4301                56.1106
 Red. masses --     3.3706                 1.5478                 4.2963
 Frc consts  --     0.0019                 0.0021                 0.0080
 IR Inten    --     1.5052                 1.3509                12.2043

                     4                      5                      6
                     A                      A                      A
 Frequencies --    71.8154               178.9858               227.2748
 Red. masses --     2.0737                 4.3752                 5.3290
 Frc consts  --     0.0063                 0.0826                 0.1622
 IR Inten    --     1.0829                 2.7057                 5.5149

                     7                      8                      9
                     A                      A                      A
 Frequencies --   302.0117               343.8517               418.1542
 Red. masses --     4.1655                 2.0553                 3.0099
 Frc consts  --     0.2239                 0.1432                 0.3101
 IR Inten    --     0.1466                 2.4459                 0.1692

                    10                     11                     12
                     A                      A                      A
 Frequencies --   441.5881               460.3830               503.4516
 Red. masses --     2.7222                 1.2863                 3.9070
 Frc consts  --     0.3128                 0.1606                 0.5835
 IR Inten    --     8.3557               102.4069                15.0673

                    13                     14                     15
                     A                      A                      A
 Frequencies --   598.7224               615.5013               635.7304
 Red. masses --     3.5756                 3.5429                 5.9367
 Frc consts  --     0.7552                 0.7908                 1.4136
 IR Inten    --    17.9796                 0.5162                 0.3657

                    16                     17                     18
                     A                      A                      A
 Frequencies --   647.9852               719.5486               771.0916
 Red. masses --     2.7646                 1.8240                 1.9984
 Frc consts  --     0.6839                 0.5564                 0.7001
 IR Inten    --     3.0784                28.9179                21.3219

                    19                     20                     21
                     A                      A                      A
 Frequencies --   829.0293               860.3441               868.2332
 Red. masses --     3.7746                 2.6659                 1.2473
 Frc consts  --     1.5285                 1.1626                 0.5540
 IR Inten    --     5.4043                 3.6891                 0.0592

                    22                     23                     24
                     A                      A                      A
 Frequencies --   932.6371               975.9354               998.6480
 Red. masses --     1.4099                 1.3315                 1.5192
 Frc consts  --     0.7225                 0.7472                 0.8927
 IR Inten    --     2.6072                 0.2265                 2.1346

                    25                     26                     27
                     A                      A                      A
 Frequencies --  1004.6902              1017.9470              1033.8381
 Red. masses --     1.3710                 5.9726                 2.5606
 Frc consts  --     0.8153                 3.6464                 1.6125
 IR Inten    --     2.4868                 0.0585                 3.4164

                    28                     29                     30
                     A                      A                      A
 Frequencies --  1058.7028              1067.4859              1101.0694
 Red. masses --     2.2668                 1.6990                 3.2002
 Frc consts  --     1.4970                 1.1407                 2.2859
 IR Inten    --     3.8913                 7.3777                12.9459

                    31                     32                     33
                     A                      A                      A
 Frequencies --  1119.3255              1192.9604              1215.0480
 Red. masses --     1.5606                 1.1040                 1.1461
 Frc consts  --     1.1520                 0.9257                 0.9969
 IR Inten    --     6.7262                 0.0972                 0.9826

                    34                     35                     36
                     A                      A                      A
 Frequencies --  1230.6617              1266.6859              1290.5205
 Red. masses --     2.9214                 1.4570                 1.7845
 Frc consts  --     2.6069                 1.3773                 1.7510
 IR Inten    --     2.7316                21.5916               140.3333

                    37                     38                     39
                     A                      A                      A
 Frequencies --  1362.3503              1371.9661              1401.4027
 Red. masses --     3.8755                 1.2915                 1.3266
 Frc consts  --     4.2380                 1.4323                 1.5351
 IR Inten    --     7.0331                 6.2281                12.1414

                    40                     41                     42
                     A                      A                      A
 Frequencies --  1426.0132              1500.2273              1502.2117
 Red. masses --     1.2626                 1.1252                 1.3419
 Frc consts  --     1.5127                 1.4920                 1.7841
 IR Inten    --    22.3702                20.5257                 8.8830

                    43                     44                     45
                     A                      A                      A
 Frequencies --  1504.7082              1515.7829              1545.5549
 Red. masses --     1.4708                 1.0682                 2.1707
 Frc consts  --     1.9621                 1.4460                 3.0551
 IR Inten    --     7.9025                15.8950                 8.0861

                    46                     47                     48
                     A                      A                      A
 Frequencies --  1557.4504              1645.4406              1665.3614
 Red. masses --     1.8862                 5.4767                 5.4740
 Frc consts  --     2.6956                 8.7365                 8.9449
 IR Inten    --   203.6435                 1.0948                 3.0426

                    49                     50                     51
                     A                      A                      A
 Frequencies --  1778.0708              3063.7443              3066.3505
 Red. masses --     8.9705                 1.0358                 1.0661
 Frc consts  --    16.7096                 5.7282                 5.9060
 IR Inten    --   209.7676                 8.5696                35.2451

                    52                     53                     54
                     A                      A                      A
 Frequencies --  3133.9801              3135.9474              3145.4203
 Red. masses --     1.0986                 1.1026                 1.1020
 Frc consts  --     6.3574                 6.3885                 6.4237
 IR Inten    --     0.8806                15.8459                10.9552

                    55                     56                     57
                     A                      A                      A
 Frequencies --  3169.3173              3181.8471              3191.7857
 Red. masses --     1.0871                 1.0864                 1.0907
 Frc consts  --     6.4334                 6.4805                 6.5470
 IR Inten    --    11.2891                 0.8646                23.9538

                    58                     59                     60
                     A                      A                      A
 Frequencies --  3201.6345              3209.0487              3621.0412
 Red. masses --     1.0938                 1.0976                 1.0775
 Frc consts  --     6.6060                 6.6598                 8.3240
 IR Inten    --    22.2827                17.0123                14.7359

 - Thermochemistry -
 -------------------
 Temperature   298.150 Kelvin.  Pressure   1.00000 Atm.
 Atom     1 has atomic number  6 and mass  12.00000

 Molecular mass:   149.08406 amu.
 Principal axes and moments of inertia in atomic units:
                           1         2         3
     Eigenvalues --   696.640813115.317663386.96910
           X            0.99992  -0.00220  -0.01215
           Y            0.00193   0.99975  -0.02225
           Z            0.01219   0.02223   0.99968
 This molecule is an asymmetric top.
 Rotational symmetry number  1.
 Warning -- assumption of classical behavior for rotation
           may cause significant error
 Rotational temperatures (Kelvin)      0.12433     0.02780     0.02557
 Rotational constants (GHZ):           2.59063     0.57931     0.53285
 Zero-point vibrational energy     484675.2 (Joules/Mol)
                                  115.84016 (Kcal/Mol)
 Warning -- explicit consideration of  14 degrees of freedom as
           vibrations may cause significant error
 Vibrational temperatures:     45.06    68.24    80.73   103.33   257.52
          (Kelvin)            327.00   434.53   494.73   601.63   635.35
                              662.39   724.35   861.43   885.57   914.67
                              932.31  1035.27  1109.43  1192.79  1237.84
                             1249.19  1341.86  1404.15  1436.83  1445.52
                             1464.60  1487.46  1523.24  1535.87  1584.19
                             1610.46  1716.40  1748.18  1770.65  1822.48
                             1856.77  1960.12  1973.95  2016.30  2051.71
                             2158.49  2161.34  2164.94  2180.87  2223.71
                             2240.82  2367.42  2396.08  2558.24  4408.04
                             4411.79  4509.09  4511.92  4525.55  4559.94
                             4577.96  4592.26  4606.43  4617.10  5209.86

 Zero-point correction=                           0.184603 (Hartree/Particle)
 Thermal correction to Energy=                    0.195148
 Thermal correction to Enthalpy=                  0.196092
 Thermal correction to Gibbs Free Energy=         0.146460
 Sum of electronic and zero-point Energies=           -479.391528
 Sum of electronic and thermal Energies=              -479.380983
 Sum of electronic and thermal Enthalpies=            -479.380039
 Sum of electronic and thermal Free Energies=         -479.429671

                     E (Thermal)             CV                S
                      KCal/Mol        Cal/Mol-Kelvin    Cal/Mol-Kelvin
 Total                  122.457             38.663            104.459
 Electronic               0.000              0.000              0.000
 Translational            0.889              2.981             40.908
 Rotational               0.889              2.981             30.376
 Vibrational            120.680             32.702             33.175
 Vibration     1          0.594              1.983              5.744
 Vibration     2          0.595              1.979              4.922
 Vibration     3          0.596              1.975              4.590
 Vibration     4          0.598              1.967              4.103
 Vibration     5          0.629              1.868              2.339
 Vibration     6          0.651              1.799              1.900
 Vibration     7          0.694              1.670              1.406
 Vibration     8          0.723              1.588              1.194
 Vibration     9          0.781              1.431              0.898
 Vibration    10          0.801              1.379              0.822
 Vibration    11          0.818              1.338              0.765
 Vibration    12          0.859              1.242              0.650
 Vibration    13          0.957              1.035              0.452
 Vibration    14          0.975              0.999              0.424

 Optimization completed.
    -- Stationary point found.
 Normal termination of Gaussian 09 at Fri Feb 16 18:50:01 2018.
