 Gaussian 09, Revision C.01,
 Gaussian 09:  AM64L-G09RevC.01 23-Sep-2011

 ----------------------------------------------------------------------
 #HF/6-31G* Geom=AllCheck Guess=Read Pop=(MK,ReadRadii) Integral=(Grid=
 UltraFine) iop(6/33=2)
 ----------------------------------------------------------------------

 Structure from the checkpoint file:  frag20-conf0.chk
 -----------------------------
 Optimization for frag20-conf0
 -----------------------------
 Charge =  1 Multiplicity = 1

                         Standard orientation:
 ---------------------------------------------------------------------
 Center     Atomic      Atomic             Coordinates (Angstroms)
 Number     Number       Type             X           Y           Z
 ---------------------------------------------------------------------
      1          6           0       -2.275207    0.821270    0.650572
      2          6           0       -2.662818   -0.500603    0.621815
      3          6           0       -0.738373   -1.077040   -0.601780
      4          6           0       -0.279338    0.235090   -0.613903
      5          6           0       -1.069717    1.194177    0.038719
      6          6           0        2.587291   -0.694474    0.180660
      7          6           0        3.824995   -0.660308    1.048833
      8          6           0       -2.326293   -2.850402   -0.035876
      9          6           0        1.058472    0.536305   -1.275946
     10          7           0       -1.893759   -1.431493    0.003201
     11          7           0        2.155122    0.506441   -0.322793
     12          8           0        1.983273   -1.732077   -0.085992
     13         17           0       -0.579844    2.848172    0.114090
     14          1           0       -2.896842    1.554784    1.150198
     15          1           0       -3.576718   -0.851172    1.085592
     16          1           0       -0.152613   -1.870770   -1.046396
     17          1           0        3.646349   -1.257565    1.946619
     18          1           0        4.650260   -1.130291    0.503042
     19          1           0        4.126574    0.349939    1.339120
     20          1           0       -2.846704   -3.044853   -0.976869
     21          1           0       -1.446666   -3.489448    0.045763
     22          1           0       -2.993335   -3.042393    0.804280
     23          1           0        1.235238   -0.206640   -2.060115
     24          1           0        1.029508    1.522332   -1.742413
     25          1           0        2.672512    1.355058   -0.141838
 ---------------------------------------------------------------------

 SCF Done:  E(RHF) =  -990.855541382     A.U. after   14 cycles

 The electronic state is 1-A.
 Alpha  occ. eigenvalues -- -104.99026 -20.64801 -15.84932 -15.71994 -11.50588
 Alpha  occ. eigenvalues --  -11.48820 -11.48297 -11.47760 -11.44095 -11.43308
 Alpha  occ. eigenvalues --  -11.43047 -11.42296 -11.34210 -10.72336  -8.19272
 Alpha  occ. eigenvalues --   -8.18911  -8.18899  -1.51388  -1.50027  -1.36577
 Alpha  occ. eigenvalues --   -1.34207  -1.24977  -1.24484  -1.14678  -1.13051
 Alpha  occ. eigenvalues --   -1.09096  -1.03993  -1.00905  -0.91750  -0.88998
 Alpha  occ. eigenvalues --   -0.88914  -0.83072  -0.82133  -0.81052  -0.79809
 Alpha  occ. eigenvalues --   -0.78350  -0.77383  -0.74042  -0.73293  -0.71903
 Alpha  occ. eigenvalues --   -0.71404  -0.70054  -0.69647  -0.68078  -0.66261
 Alpha  occ. eigenvalues --   -0.65554  -0.62185  -0.61171  -0.55405  -0.54505
 Alpha  occ. eigenvalues --   -0.52360  -0.52050
 Alpha virt. eigenvalues --   -0.09504  -0.04847   0.03826   0.07459   0.09220
 Alpha virt. eigenvalues --    0.09777   0.11442   0.12900   0.13209   0.14831
 Alpha virt. eigenvalues --    0.15603   0.16363   0.17263   0.18289   0.18755

 Mulliken atomic charges:
              1
     1  C   -0.255673
     2  C    0.166353
     3  C    0.210788
     4  C   -0.040920
     5  C   -0.062781
     6  C    0.768053
     7  C   -0.583758
     8  C   -0.332501
     9  C   -0.160756
    10  N   -0.614080
    11  N   -0.794271
    12  O   -0.651133
    13  Cl   0.135161
    14  H    0.302142
    15  H    0.299844
    16  H    0.330977
    17  H    0.228002
    18  H    0.233832
    19  H    0.189235
    20  H    0.248370
    21  H    0.253760
    22  H    0.235899
    23  H    0.236442
    24  H    0.242038
    25  H    0.414980
 Sum of Mulliken atomic charges =   1.00000

 Dipole moment (field-independent basis, Debye):
    X=             -4.7369    Y=             -1.3856    Z=              0.2797  Tot=              4.9433
 Quadrupole moment (field-independent basis, Debye-Ang):
   XX=            -42.6076   YY=            -65.4763   ZZ=            -76.4273
   XY=             16.5273   XZ=             -3.0919   YZ=              0.1675

 Normal termination of Gaussian 09 at Sat Feb 17 20:58:50 2018.
