 Gaussian 09, Revision C.01,
 Gaussian 09:  AM64L-G09RevC.01 23-Sep-2011

 ---------------------------------------------------------
 #B3LYP/6-31G* Integral=(Grid=UltraFine) freq Opt pop=none
 ---------------------------------------------------------

 99/9=1/99;
 -----------------------------
 Optimization for frag20-conf0
 -----------------------------
 Charge =  1 Multiplicity = 1

 SCF Done:  E(RB3LYP) =  -994.881937563     A.U. after   17 cycles
 SCF Done:  E(RB3LYP) =  -994.885167886     A.U. after   12 cycles
 SCF Done:  E(RB3LYP) =  -994.885497678     A.U. after   11 cycles
 SCF Done:  E(RB3LYP) =  -994.885757540     A.U. after   12 cycles
 SCF Done:  E(RB3LYP) =  -994.886249714     A.U. after   12 cycles
 SCF Done:  E(RB3LYP) =  -994.887724283     A.U. after   13 cycles
 SCF Done:  E(RB3LYP) =  -994.889234392     A.U. after   12 cycles
 SCF Done:  E(RB3LYP) =  -994.891640841     A.U. after   13 cycles
 SCF Done:  E(RB3LYP) =  -994.897463839     A.U. after   16 cycles
 SCF Done:  E(RB3LYP) =  -994.898561156     A.U. after   13 cycles
 SCF Done:  E(RB3LYP) =  -994.901481573     A.U. after   10 cycles
 SCF Done:  E(RB3LYP) =  -994.901490256     A.U. after    9 cycles
 SCF Done:  E(RB3LYP) =  -994.901506212     A.U. after   10 cycles
 SCF Done:  E(RB3LYP) =  -994.901550678     A.U. after   11 cycles
 SCF Done:  E(RB3LYP) =  -994.901592319     A.U. after   11 cycles
 SCF Done:  E(RB3LYP) =  -994.901597355     A.U. after   11 cycles
 SCF Done:  E(RB3LYP) =  -994.901600596     A.U. after   10 cycles
 SCF Done:  E(RB3LYP) =  -994.901601336     A.U. after    9 cycles
 SCF Done:  E(RB3LYP) =  -994.901601394     A.U. after    7 cycles
 Optimization completed.
    -- Stationary point found.
 Normal termination of Gaussian 09 at Fri Feb 16 19:38:57 2018.

 --------------------------------------------------------------------
 #N Geom=AllCheck Guess=TCheck SCRF=Check GenChk RB3LYP/6-31G(d) Freq
 --------------------------------------------------------------------

 Structure from the checkpoint file:  frag20-conf0.chk
 -----------------------------
 Optimization for frag20-conf0
 -----------------------------
 Charge =  1 Multiplicity = 1

                         Standard orientation:
 ---------------------------------------------------------------------
 Center     Atomic      Atomic             Coordinates (Angstroms)
 Number     Number       Type             X           Y           Z
 ---------------------------------------------------------------------
      1          6           0       -2.275207    0.821270    0.650572
      2          6           0       -2.662818   -0.500603    0.621815
      3          6           0       -0.738373   -1.077040   -0.601780
      4          6           0       -0.279338    0.235090   -0.613903
      5          6           0       -1.069717    1.194177    0.038719
      6          6           0        2.587291   -0.694474    0.180660
      7          6           0        3.824995   -0.660308    1.048833
      8          6           0       -2.326293   -2.850402   -0.035876
      9          6           0        1.058472    0.536305   -1.275946
     10          7           0       -1.893759   -1.431493    0.003201
     11          7           0        2.155122    0.506441   -0.322793
     12          8           0        1.983273   -1.732077   -0.085992
     13         17           0       -0.579844    2.848172    0.114090
     14          1           0       -2.896842    1.554784    1.150198
     15          1           0       -3.576718   -0.851172    1.085592
     16          1           0       -0.152613   -1.870770   -1.046396
     17          1           0        3.646349   -1.257565    1.946619
     18          1           0        4.650260   -1.130291    0.503042
     19          1           0        4.126574    0.349939    1.339120
     20          1           0       -2.846704   -3.044853   -0.976869
     21          1           0       -1.446666   -3.489448    0.045763
     22          1           0       -2.993335   -3.042393    0.804280
     23          1           0        1.235238   -0.206640   -2.060115
     24          1           0        1.029508    1.522332   -1.742413
     25          1           0        2.672512    1.355058   -0.141838
 ---------------------------------------------------------------------

 SCF Done:  E(RB3LYP) =  -994.901601394     A.U. after    1 cycles

 Isotropic polarizability for W=    0.000000      117.24 Bohr**3.
 End of Minotr Frequency-dependent properties file   721 does not exist.

                     1                      2                      3
                     A                      A                      A
 Frequencies --    31.2599                34.4212                52.2655
 Red. masses --     1.8353                 1.5822                 1.2804
 Frc consts  --     0.0011                 0.0011                 0.0021
 IR Inten    --     1.5314                 1.4242                 2.8872

                     4                      5                      6
                     A                      A                      A
 Frequencies --    66.7305                90.8290               106.4359
 Red. masses --     2.5324                 5.1239                 4.2973
 Frc consts  --     0.0066                 0.0249                 0.0287
 IR Inten    --     4.1764                21.1268                 1.9089

                     7                      8                      9
                     A                      A                      A
 Frequencies --   170.5696               196.3876               256.0538
 Red. masses --     5.7679                 5.9733                 4.2697
 Frc consts  --     0.0989                 0.1357                 0.1649
 IR Inten    --     3.0863                 4.2160                 1.8780

                    10                     11                     12
                     A                      A                      A
 Frequencies --   290.4328               328.8520               334.2367
 Red. masses --     4.8082                 2.2787                 4.5491
 Frc consts  --     0.2390                 0.1452                 0.2994
 IR Inten    --     5.6890                10.0275                 3.9511

                    13                     14                     15
                     A                      A                      A
 Frequencies --   386.7849               407.0676               426.0211
 Red. masses --     5.8835                 1.2044                 3.1330
 Frc consts  --     0.5186                 0.1176                 0.3350
 IR Inten    --    18.0575                66.3147                 3.2888

                    16                     17                     18
                     A                      A                      A
 Frequencies --   470.5937               485.7043               548.8042
 Red. masses --     3.0825                 3.1061                 4.2522
 Frc consts  --     0.4022                 0.4317                 0.7546
 IR Inten    --     4.1369                21.3665                 5.5290

                    19                     20                     21
                     A                      A                      A
 Frequencies --   599.7325               636.0610               662.7264
 Red. masses --     4.1130                 2.6976                 5.4478
 Frc consts  --     0.8716                 0.6430                 1.4097
 IR Inten    --     1.3901                 1.3844                 4.4638

                    22                     23                     24
                     A                      A                      A
 Frequencies --   676.8992               735.7256               774.7340
 Red. masses --     4.5049                 5.4026                 4.3254
 Frc consts  --     1.2161                 1.7230                 1.5296
 IR Inten    --     8.6480                 2.4944                10.3588

                    25                     26                     27
                     A                      A                      A
 Frequencies --   845.1679               863.4662               909.2440
 Red. masses --     1.3220                 2.6251                 1.5475
 Frc consts  --     0.5564                 1.1532                 0.7538
 IR Inten    --    26.6722                 2.2266                10.8849

                    28                     29                     30
                     A                      A                      A
 Frequencies --   955.5783               975.1542              1006.0654
 Red. masses --     3.8436                 1.3269                 1.6160
 Frc consts  --     2.0678                 0.7434                 0.9637
 IR Inten    --    19.1275                 0.0880                 6.7940

                    31                     32                     33
                     A                      A                      A
 Frequencies --  1043.9363              1071.7695              1107.3272
 Red. masses --     2.6264                 1.7269                 2.8036
 Frc consts  --     1.6864                 1.1687                 2.0255
 IR Inten    --     6.1262                10.1247                36.1345

                    34                     35                     36
                     A                      A                      A
 Frequencies --  1113.6435              1123.9822              1157.6886
 Red. masses --     4.3221                 2.0010                 1.3402
 Frc consts  --     3.1582                 1.4894                 1.0583
 IR Inten    --    59.8611                 6.3531                 5.8773

                    37                     38                     39
                     A                      A                      A
 Frequencies --  1196.1322              1215.0019              1248.2669
 Red. masses --     1.5865                 2.0758                 2.4781
 Frc consts  --     1.3374                 1.8055                 2.2750
 IR Inten    --     5.0345                 6.1810                28.5419

                    40                     41                     42
                     A                      A                      A
 Frequencies --  1274.3956              1306.6909              1325.2292
 Red. masses --     1.6523                 1.6084                 2.1117
 Frc consts  --     1.5811                 1.6180                 2.1851
 IR Inten    --    73.3452                27.2647                14.5465

                    43                     44                     45
                     A                      A                      A
 Frequencies --  1380.5717              1407.0538              1430.8759
 Red. masses --     2.1565                 1.2803                 1.2339
 Frc consts  --     2.4217                 1.4934                 1.4884
 IR Inten    --    15.7754                27.5107                18.4503

                    46                     47                     48
                     A                      A                      A
 Frequencies --  1469.2458              1486.1749              1494.7817
 Red. masses --     1.3331                 1.6851                 1.0648
 Frc consts  --     1.6956                 2.1929                 1.4017
 IR Inten    --     8.5714                11.7504                14.7474

                    49                     50                     51
                     A                      A                      A
 Frequencies --  1500.2639              1511.4094              1511.9613
 Red. masses --     1.1595                 1.0821                 1.0985
 Frc consts  --     1.5376                 1.4564                 1.4796
 IR Inten    --    21.1781                30.0888                17.3437

                    52                     53                     54
                     A                      A                      A
 Frequencies --  1524.3672              1535.2708              1546.2736
 Red. masses --     1.1959                 1.8920                 1.9181
 Frc consts  --     1.6372                 2.6274                 2.7020
 IR Inten    --    28.8789                55.2798               157.1571

                    55                     56                     57
                     A                      A                      A
 Frequencies --  1603.5683              1677.8315              1756.6587
 Red. masses --     5.7802                 4.7635                 8.8914
 Frc consts  --     8.7573                 7.9009                16.1657
 IR Inten    --    15.1599               107.0042               163.2358

                    58                     59                     60
                     A                      A                      A
 Frequencies --  3072.1776              3087.9862              3096.8502
 Red. masses --     1.0363                 1.0652                 1.0327
 Frc consts  --     5.7626                 5.9846                 5.8353
 IR Inten    --     1.7029                 8.8761                 1.7952

                    61                     62                     63
                     A                      A                      A
 Frequencies --  3142.5211              3155.2623              3160.5462
 Red. masses --     1.1014                 1.1013                 1.1039
 Frc consts  --     6.4084                 6.4601                 6.4967
 IR Inten    --     4.5095                 0.5084                 5.4917

                    64                     65                     66
                     A                      A                      A
 Frequencies --  3184.3787              3203.3609              3248.0850
 Red. masses --     1.1065                 1.1084                 1.0916
 Frc consts  --     6.6110                 6.7015                 6.7851
 IR Inten    --     0.3253                 0.2779                 4.0455

                    67                     68                     69
                     A                      A                      A
 Frequencies --  3261.1677              3273.5993              3633.5086
 Red. masses --     1.0977                 1.0949                 1.0793
 Frc consts  --     6.8781                 6.9129                 8.3954
 IR Inten    --     9.3294                13.0576                43.2726

 - Thermochemistry -
 -------------------
 Temperature   298.150 Kelvin.  Pressure   1.00000 Atm.
 Atom     1 has atomic number  6 and mass  12.00000

 Molecular mass:   199.06382 amu.
 Principal axes and moments of inertia in atomic units:
                           1         2         3
     Eigenvalues --  2261.898473104.096654850.10680
           X            0.99659   0.08242   0.00480
           Y           -0.08240   0.99659  -0.00415
           Z           -0.00513   0.00374   0.99998
 This molecule is an asymmetric top.
 Rotational symmetry number  1.
 Warning -- assumption of classical behavior for rotation
           may cause significant error
 Rotational temperatures (Kelvin)      0.03829     0.02790     0.01786
 Rotational constants (GHZ):           0.79789     0.58141     0.37210
 Zero-point vibrational energy     537505.0 (Joules/Mol)
                                  128.46678 (Kcal/Mol)
 Warning -- explicit consideration of  19 degrees of freedom as
           vibrations may cause significant error
 Vibrational temperatures:     44.98    49.52    75.20    96.01   130.68
          (Kelvin)            153.14   245.41   282.56   368.40   417.87
                              473.14   480.89   556.50   585.68   612.95
                              677.08   698.82   789.61   862.88   915.15
                              953.51   973.91  1058.54  1114.67  1216.01
                             1242.33  1308.20  1374.86  1403.03  1447.50
                             1501.99  1542.04  1593.19  1602.28  1617.16
                             1665.65  1720.97  1748.11  1795.98  1833.57
                             1880.03  1906.71  1986.33  2024.43  2058.71
                             2113.91  2138.27  2150.65  2158.54  2174.58
                             2175.37  2193.22  2208.91  2224.74  2307.17
                             2414.02  2527.44  4420.17  4442.92  4455.67
                             4521.38  4539.71  4547.32  4581.60  4608.92
                             4673.26  4692.09  4709.97  5227.80

 Zero-point correction=                           0.204725 (Hartree/Particle)
 Thermal correction to Energy=                    0.218176
 Thermal correction to Enthalpy=                  0.219120
 Thermal correction to Gibbs Free Energy=         0.162328
 Sum of electronic and zero-point Energies=           -994.696877
 Sum of electronic and thermal Energies=              -994.683426
 Sum of electronic and thermal Enthalpies=            -994.682482
 Sum of electronic and thermal Free Energies=         -994.739274

                     E (Thermal)             CV                S
                      KCal/Mol        Cal/Mol-Kelvin    Cal/Mol-Kelvin
 Total                  136.907             48.100            119.529
 Electronic               0.000              0.000              0.000
 Translational            0.889              2.981             41.770
 Rotational               0.889              2.981             31.899
 Vibrational            135.130             42.138             45.860
 Vibration     1          0.594              1.983              5.748
 Vibration     2          0.594              1.983              5.557
 Vibration     3          0.596              1.977              4.730
 Vibration     4          0.598              1.970              4.248
 Vibration     5          0.602              1.956              3.642
 Vibration     6          0.605              1.944              3.333
 Vibration     7          0.626              1.879              2.429
 Vibration     8          0.636              1.845              2.167
 Vibration     9          0.666              1.753              1.689
 Vibration    10          0.686              1.692              1.471
 Vibration    11          0.712              1.618              1.266
 Vibration    12          0.716              1.607              1.240
 Vibration    13          0.755              1.498              1.013
 Vibration    14          0.772              1.455              0.937
 Vibration    15          0.788              1.414              0.872
 Vibration    16          0.828              1.315              0.736
 Vibration    17          0.842              1.282              0.695
 Vibration    18          0.904              1.142              0.547
 Vibration    19          0.958              1.032              0.450

 Normal termination of Gaussian 09 at Fri Feb 16 19:59:14 2018.
