 Gaussian 09, Revision C.01,
 Gaussian 09:  AM64L-G09RevC.01 23-Sep-2011

 ----------------------------------------------------------------------
 #HF/6-31G* Geom=AllCheck Guess=Read Pop=(MK,ReadRadii) Integral=(Grid=
 UltraFine) iop(6/33=2)
 ----------------------------------------------------------------------

 Structure from the checkpoint file:  frag21-conf1.chk
 -----------------------------
 Optimization for frag21-conf1
 -----------------------------
 Charge =  1 Multiplicity = 1

                         Standard orientation:
 ---------------------------------------------------------------------
 Center     Atomic      Atomic             Coordinates (Angstroms)
 Number     Number       Type             X           Y           Z
 ---------------------------------------------------------------------
      1          6           0        2.367648    0.887654   -0.717153
      2          6           0        0.928915   -0.483926    0.651378
      3          6           0        1.374750    1.840540   -0.725510
      4          6           0        2.143360   -0.301180   -0.010296
      5          6           0       -0.045789    0.504921    0.623863
      6          6           0       -2.584321   -1.034264   -0.251904
      7          6           0       -3.907635   -1.310353   -0.928756
      8          6           0       -0.806897    2.747791   -0.104813
      9          6           0       -1.360407    0.318470    1.364262
     10          7           0        0.198366    1.658651   -0.067257
     11          7           0       -2.498159    0.152784    0.467995
     12          8           0       -1.618004   -1.779120   -0.308652
     13         17           0        3.346517   -1.527292    0.028723
     14          1           0        3.293196    1.064385   -1.251887
     15          1           0        0.713644   -1.411803    1.165475
     16          1           0        1.487527    2.778903   -1.253906
     17          1           0       -3.718274   -1.780064   -1.896353
     18          1           0       -4.476225   -2.024483   -0.321669
     19          1           0       -4.514468   -0.411370   -1.069705
     20          1           0       -1.761908    2.339843   -0.435006
     21          1           0       -0.906412    3.190844    0.889192
     22          1           0       -0.469634    3.511054   -0.804250
     23          1           0       -1.240732   -0.557287    2.010398
     24          1           0       -1.552781    1.182199    2.007986
     25          1           0       -3.359871    0.616766    0.729048
 ---------------------------------------------------------------------

 SCF Done:  E(RHF) =  -990.849404269     A.U. after   14 cycles

 The electronic state is 1-A.
 Alpha  occ. eigenvalues -- -104.98022 -20.66172 -15.84780 -15.73570 -11.50010
 Alpha  occ. eigenvalues --  -11.49363 -11.48721 -11.48666 -11.44414 -11.44281
 Alpha  occ. eigenvalues --  -11.42576 -11.42029 -11.35094 -10.71330  -8.18270
 Alpha  occ. eigenvalues --   -8.17901  -8.17883  -1.51744  -1.50862  -1.37161
 Alpha  occ. eigenvalues --   -1.34269  -1.25152  -1.24112  -1.14744  -1.13647
 Alpha  occ. eigenvalues --   -1.09439  -1.05914  -0.99383  -0.92728  -0.88877
 Alpha  occ. eigenvalues --   -0.87780  -0.84396  -0.83109  -0.80853  -0.79005
 Alpha  occ. eigenvalues --   -0.78360  -0.78126  -0.74367  -0.74144  -0.71919
 Alpha  occ. eigenvalues --   -0.71321  -0.70990  -0.70708  -0.68812  -0.67035
 Alpha  occ. eigenvalues --   -0.65093  -0.63125  -0.60133  -0.56442  -0.54233
 Alpha  occ. eigenvalues --   -0.53827  -0.51988
 Alpha virt. eigenvalues --   -0.09444  -0.04412   0.04359   0.06159   0.06806
 Alpha virt. eigenvalues --    0.09676   0.11274   0.12496   0.13526   0.14461
 Alpha virt. eigenvalues --    0.15466   0.16261   0.17073   0.17499   0.19366

 Mulliken atomic charges:
              1
     1  C   -0.253188
     2  C   -0.223607
     3  C    0.163725
     4  C   -0.053302
     5  C    0.460293
     6  C    0.747061
     7  C   -0.592851
     8  C   -0.334701
     9  C   -0.188879
    10  N   -0.665043
    11  N   -0.804157
    12  O   -0.598550
    13  Cl   0.152088
    14  H    0.302252
    15  H    0.308178
    16  H    0.295938
    17  H    0.240581
    18  H    0.233626
    19  H    0.191073
    20  H    0.255595
    21  H    0.234938
    22  H    0.235600
    23  H    0.251725
    24  H    0.232142
    25  H    0.409463
 Sum of Mulliken atomic charges =   1.00000

 Dipole moment (field-independent basis, Debye):
    X=             -2.2132    Y=              7.2658    Z=              0.8407  Tot=              7.6418
 Quadrupole moment (field-independent basis, Debye-Ang):
   XX=            -46.6120   YY=            -65.0444   ZZ=            -74.8356
   XY=              0.4135   XZ=             -5.8619   YZ=             -4.3744

 Normal termination of Gaussian 09 at Sat Feb 17 21:00:00 2018.
