 Gaussian 09, Revision C.01,
 Gaussian 09:  AM64L-G09RevC.01 23-Sep-2011

 ---------------------------------------------------------
 #B3LYP/6-31G* Integral=(Grid=UltraFine) freq Opt pop=none
 ---------------------------------------------------------

 99/9=1/99;
 -----------------------------
 Optimization for frag21-conf1
 -----------------------------
 Charge =  1 Multiplicity = 1

 SCF Done:  E(RB3LYP) =  -994.889788250     A.U. after   17 cycles
 SCF Done:  E(RB3LYP) =  -994.893780074     A.U. after   14 cycles
 SCF Done:  E(RB3LYP) =  -994.894409852     A.U. after   13 cycles
 SCF Done:  E(RB3LYP) =  -994.894696748     A.U. after   12 cycles
 SCF Done:  E(RB3LYP) =  -994.895180532     A.U. after   13 cycles
 SCF Done:  E(RB3LYP) =  -994.895048918     A.U. after   15 cycles
 SCF Done:  E(RB3LYP) =  -994.895564682     A.U. after   13 cycles
 SCF Done:  E(RB3LYP) =  -994.896000860     A.U. after   12 cycles
 SCF Done:  E(RB3LYP) =  -994.896200824     A.U. after   12 cycles
 SCF Done:  E(RB3LYP) =  -994.896210174     A.U. after   11 cycles
 SCF Done:  E(RB3LYP) =  -994.896362783     A.U. after   12 cycles
 SCF Done:  E(RB3LYP) =  -994.894875377     A.U. after   15 cycles
 SCF Done:  E(RB3LYP) =  -994.896383477     A.U. after   14 cycles
 SCF Done:  E(RB3LYP) =  -994.896422581     A.U. after   10 cycles
 SCF Done:  E(RB3LYP) =  -994.896439244     A.U. after   11 cycles
 SCF Done:  E(RB3LYP) =  -994.896443709     A.U. after   10 cycles
 SCF Done:  E(RB3LYP) =  -994.896445054     A.U. after    9 cycles
 SCF Done:  E(RB3LYP) =  -994.896445131     A.U. after    7 cycles
 SCF Done:  E(RB3LYP) =  -994.896445176     A.U. after    7 cycles
 Optimization completed.
    -- Stationary point found.
 Normal termination of Gaussian 09 at Fri Feb 16 19:49:52 2018.

 --------------------------------------------------------------------
 #N Geom=AllCheck Guess=TCheck SCRF=Check GenChk RB3LYP/6-31G(d) Freq
 --------------------------------------------------------------------

 Structure from the checkpoint file:  frag21-conf1.chk
 -----------------------------
 Optimization for frag21-conf1
 -----------------------------
 Charge =  1 Multiplicity = 1

                         Standard orientation:
 ---------------------------------------------------------------------
 Center     Atomic      Atomic             Coordinates (Angstroms)
 Number     Number       Type             X           Y           Z
 ---------------------------------------------------------------------
      1          6           0        2.367648    0.887654   -0.717153
      2          6           0        0.928915   -0.483926    0.651378
      3          6           0        1.374750    1.840540   -0.725510
      4          6           0        2.143360   -0.301180   -0.010296
      5          6           0       -0.045789    0.504921    0.623863
      6          6           0       -2.584321   -1.034264   -0.251904
      7          6           0       -3.907635   -1.310353   -0.928756
      8          6           0       -0.806897    2.747791   -0.104813
      9          6           0       -1.360407    0.318470    1.364262
     10          7           0        0.198366    1.658651   -0.067257
     11          7           0       -2.498159    0.152784    0.467995
     12          8           0       -1.618004   -1.779120   -0.308652
     13         17           0        3.346517   -1.527292    0.028723
     14          1           0        3.293196    1.064385   -1.251887
     15          1           0        0.713644   -1.411803    1.165475
     16          1           0        1.487527    2.778903   -1.253906
     17          1           0       -3.718274   -1.780064   -1.896353
     18          1           0       -4.476225   -2.024483   -0.321669
     19          1           0       -4.514468   -0.411370   -1.069705
     20          1           0       -1.761908    2.339843   -0.435006
     21          1           0       -0.906412    3.190844    0.889192
     22          1           0       -0.469634    3.511054   -0.804250
     23          1           0       -1.240732   -0.557287    2.010398
     24          1           0       -1.552781    1.182199    2.007986
     25          1           0       -3.359871    0.616766    0.729048
 ---------------------------------------------------------------------

 SCF Done:  E(RB3LYP) =  -994.896445176     A.U. after    1 cycles

 Isotropic polarizability for W=    0.000000      119.15 Bohr**3.
 End of Minotr Frequency-dependent properties file   721 does not exist.

                     1                      2                      3
                     A                      A                      A
 Frequencies --    31.9553                54.6665                65.9955
 Red. masses --     5.4983                 1.4378                 2.4515
 Frc consts  --     0.0033                 0.0025                 0.0063
 IR Inten    --     5.6153                 1.0287                 4.0823

                     4                      5                      6
                     A                      A                      A
 Frequencies --    82.8458               114.8512               149.9813
 Red. masses --     3.7967                 3.5398                 1.2025
 Frc consts  --     0.0154                 0.0275                 0.0159
 IR Inten    --     5.4295                 0.1776                 0.0239

                     7                      8                      9
                     A                      A                      A
 Frequencies --   182.3018               202.4893               259.0316
 Red. masses --     3.4770                 6.8310                 4.2515
 Frc consts  --     0.0681                 0.1650                 0.1681
 IR Inten    --     2.0798                14.3526                 5.1595

                    10                     11                     12
                     A                      A                      A
 Frequencies --   280.7351               313.5338               362.8945
 Red. masses --     4.0296                 3.5756                 2.4009
 Frc consts  --     0.1871                 0.2071                 0.1863
 IR Inten    --     0.8077                 3.3696                 2.6769

                    13                     14                     15
                     A                      A                      A
 Frequencies --   387.9223               430.0966               465.1728
 Red. masses --     8.8777                 3.2020                 3.1366
 Frc consts  --     0.7871                 0.3490                 0.3999
 IR Inten    --     7.4007                 3.9903                 4.6709

                    16                     17                     18
                     A                      A                      A
 Frequencies --   468.3257               512.1264               548.8018
 Red. masses --     3.0169                 1.3300                 3.5477
 Frc consts  --     0.3899                 0.2055                 0.6296
 IR Inten    --    21.9513                82.2583                13.7908

                    19                     20                     21
                     A                      A                      A
 Frequencies --   597.2172               637.1744               680.1376
 Red. masses --     3.9816                 2.6786                 5.2710
 Frc consts  --     0.8367                 0.6407                 1.4366
 IR Inten    --     2.0338                 4.3507                 3.5686

                    22                     23                     24
                     A                      A                      A
 Frequencies --   689.0144               758.3365               779.2578
 Red. masses --     4.9655                 4.8926                 4.5615
 Frc consts  --     1.3889                 1.6577                 1.6320
 IR Inten    --    10.1294                 3.0189                12.2550

                    25                     26                     27
                     A                      A                      A
 Frequencies --   842.2839               860.0420               899.2490
 Red. masses --     1.3310                 2.7292                 1.7305
 Frc consts  --     0.5563                 1.1894                 0.8245
 IR Inten    --    29.1660                10.2816                17.7963

                    28                     29                     30
                     A                      A                      A
 Frequencies --   915.8473               975.0684               996.8354
 Red. masses --     3.0189                 1.3281                 1.6383
 Frc consts  --     1.4919                 0.7440                 0.9592
 IR Inten    --    22.3241                 0.0019                 9.4824

                    31                     32                     33
                     A                      A                      A
 Frequencies --  1047.1755              1069.2704              1092.1561
 Red. masses --     2.6560                 1.7249                 1.6737
 Frc consts  --     1.7160                 1.1620                 1.1763
 IR Inten    --     3.1479                10.9372                 3.7024

                    34                     35                     36
                     A                      A                      A
 Frequencies --  1107.9164              1129.8070              1158.7784
 Red. masses --     3.0704                 2.3235                 1.3332
 Frc consts  --     2.2206                 1.7475                 1.0548
 IR Inten    --     6.0730                57.0974                 1.1413

                    37                     38                     39
                     A                      A                      A
 Frequencies --  1195.7774              1214.4370              1243.6340
 Red. masses --     1.9565                 2.5203                 2.2525
 Frc consts  --     1.6483                 2.1900                 2.0526
 IR Inten    --     7.2016                17.2761                58.0849

                    40                     41                     42
                     A                      A                      A
 Frequencies --  1264.3148              1288.7886              1344.0492
 Red. masses --     2.2315                 1.4563                 1.8171
 Frc consts  --     2.1017                 1.4251                 1.9340
 IR Inten    --   124.0301                 4.1239                33.4312

                    43                     44                     45
                     A                      A                      A
 Frequencies --  1355.2223              1395.8460              1427.6038
 Red. masses --     2.0332                 1.3134                 1.2386
 Frc consts  --     2.2001                 1.5078                 1.4873
 IR Inten    --     7.6441                33.3202                20.3455

                    46                     47                     48
                     A                      A                      A
 Frequencies --  1464.7384              1477.6267              1492.4673
 Red. masses --     1.5493                 1.8561                 1.0886
 Frc consts  --     1.9584                 2.3878                 1.4287
 IR Inten    --     9.4916                12.8875                28.9146

                    49                     50                     51
                     A                      A                      A
 Frequencies --  1502.3207              1510.5796              1512.6980
 Red. masses --     1.1044                 1.0757                 1.1145
 Frc consts  --     1.4686                 1.4462                 1.5026
 IR Inten    --     4.7600                25.7917                22.7295

                    52                     53                     54
                     A                      A                      A
 Frequencies --  1521.3299              1534.2857              1546.7260
 Red. masses --     1.3441                 1.5492                 1.5843
 Frc consts  --     1.8328                 2.1487                 2.2331
 IR Inten    --    50.0188                88.3807                32.1168

                    55                     56                     57
                     A                      A                      A
 Frequencies --  1601.2701              1676.3583              1792.6720
 Red. masses --     4.8917                 5.5635                 9.5461
 Frc consts  --     7.3898                 9.2116                18.0750
 IR Inten    --    60.8195               189.5498               153.2859

                    58                     59                     60
                     A                      A                      A
 Frequencies --  3068.9791              3078.7709              3097.4863
 Red. masses --     1.0379                 1.0597                 1.0348
 Frc consts  --     5.7598                 5.9183                 5.8498
 IR Inten    --     1.5518                 9.1433                 3.6119

                    61                     62                     63
                     A                      A                      A
 Frequencies --  3125.6299              3137.2232              3169.4666
 Red. masses --     1.1057                 1.1004                 1.1030
 Frc consts  --     6.3646                 6.3808                 6.5283
 IR Inten    --     2.5479                 5.7061                 2.7674

                    64                     65                     66
                     A                      A                      A
 Frequencies --  3183.0007              3208.6798              3250.0668
 Red. masses --     1.1039                 1.1076                 1.0914
 Frc consts  --     6.5897                 6.7185                 6.7924
 IR Inten    --     2.4039                 0.2206                 4.1372

                    67                     68                     69
                     A                      A                      A
 Frequencies --  3262.0038              3263.4263              3595.7471
 Red. masses --     1.0970                 1.0943                 1.0784
 Frc consts  --     6.8777                 6.8665                 8.2149
 IR Inten    --    10.4082                 4.3076                37.9118

 - Thermochemistry -
 -------------------
 Temperature   298.150 Kelvin.  Pressure   1.00000 Atm.
 Atom     1 has atomic number  6 and mass  12.00000

 Molecular mass:   199.06382 amu.
 Principal axes and moments of inertia in atomic units:
                           1         2         3
     Eigenvalues --  1719.316584059.848785206.11944
           X            0.99969   0.02470   0.00032
           Y           -0.02470   0.99969  -0.00389
           Z           -0.00042   0.00388   0.99999
 This molecule is an asymmetric top.
 Rotational symmetry number  1.
 Warning -- assumption of classical behavior for rotation
           may cause significant error
 Rotational temperatures (Kelvin)      0.05038     0.02133     0.01664
 Rotational constants (GHZ):           1.04969     0.44453     0.34666
 Zero-point vibrational energy     538035.6 (Joules/Mol)
                                  128.59358 (Kcal/Mol)
 Warning -- explicit consideration of  19 degrees of freedom as
           vibrations may cause significant error
 Vibrational temperatures:     45.98    78.65    94.95   119.20   165.25
          (Kelvin)            215.79   262.29   291.34   372.69   403.91
                              451.10   522.12   558.13   618.81   669.28
                              673.82   736.83   789.60   859.26   916.75
                              978.57   991.34  1091.08  1121.18  1211.86
                             1237.41  1293.82  1317.70  1402.90  1434.22
                             1506.65  1538.44  1571.37  1594.04  1625.54
                             1667.22  1720.45  1747.30  1789.31  1819.06
                             1854.28  1933.78  1949.86  2008.31  2054.00
                             2107.43  2125.97  2147.32  2161.50  2173.38
                             2176.43  2188.85  2207.49  2225.39  2303.87
                             2411.90  2579.25  4415.57  4429.66  4456.59
                             4497.08  4513.76  4560.15  4579.62  4616.57
                             4676.12  4693.29  4695.34  5173.47

 Zero-point correction=                           0.204927 (Hartree/Particle)
 Thermal correction to Energy=                    0.218035
 Thermal correction to Enthalpy=                  0.218979
 Thermal correction to Gibbs Free Energy=         0.163791
 Sum of electronic and zero-point Energies=           -994.691518
 Sum of electronic and thermal Energies=              -994.678411
 Sum of electronic and thermal Enthalpies=            -994.677466
 Sum of electronic and thermal Free Energies=         -994.732654

                     E (Thermal)             CV                S
                      KCal/Mol        Cal/Mol-Kelvin    Cal/Mol-Kelvin
 Total                  136.819             47.803            116.152
 Electronic               0.000              0.000              0.000
 Translational            0.889              2.981             41.770
 Rotational               0.889              2.981             31.964
 Vibrational            135.041             41.841             42.419
 Vibration     1          0.594              1.983              5.704
 Vibration     2          0.596              1.976              4.641
 Vibration     3          0.597              1.970              4.269
 Vibration     4          0.600              1.961              3.822
 Vibration     5          0.608              1.937              3.185
 Vibration     6          0.618              1.903              2.672
 Vibration     7          0.630              1.864              2.305
 Vibration     8          0.639              1.836              2.110
 Vibration     9          0.668              1.747              1.668
 Vibration    10          0.680              1.709              1.529
 Vibration    11          0.701              1.648              1.344
 Vibration    12          0.737              1.549              1.110
 Vibration    13          0.756              1.496              1.008
 Vibration    14          0.791              1.405              0.858
 Vibration    15          0.823              1.327              0.751
 Vibration    16          0.826              1.320              0.742
 Vibration    17          0.867              1.223              0.628
 Vibration    18          0.904              1.142              0.547
 Vibration    19          0.955              1.038              0.454

 Normal termination of Gaussian 09 at Fri Feb 16 20:11:32 2018.
