 Gaussian 09, Revision C.01,
 Gaussian 09:  AM64L-G09RevC.01 23-Sep-2011

 ---------------------------------------------------------
 #B3LYP/6-31G* Integral=(Grid=UltraFine) freq Opt pop=none
 ---------------------------------------------------------

 99/9=1/99;
 -----------------------------
 Optimization for frag24-conf1
 -----------------------------
 Charge =  0 Multiplicity = 1

 SCF Done:  E(RB3LYP) =  -970.359810226     A.U. after   15 cycles
 SCF Done:  E(RB3LYP) =  -970.364395833     A.U. after   12 cycles
 SCF Done:  E(RB3LYP) =  -970.364786436     A.U. after   12 cycles
 SCF Done:  E(RB3LYP) =  -970.364824278     A.U. after   12 cycles
 SCF Done:  E(RB3LYP) =  -970.365537978     A.U. after   12 cycles
 SCF Done:  E(RB3LYP) =  -970.365727740     A.U. after   12 cycles
 SCF Done:  E(RB3LYP) =  -970.365868974     A.U. after   12 cycles
 SCF Done:  E(RB3LYP) =  -970.366320352     A.U. after   12 cycles
 SCF Done:  E(RB3LYP) =  -970.367688676     A.U. after   12 cycles
 SCF Done:  E(RB3LYP) =  -970.366778773     A.U. after   15 cycles
 SCF Done:  E(RB3LYP) =  -970.375557360     A.U. after   10 cycles
 SCF Done:  E(RB3LYP) =  -970.375561788     A.U. after   10 cycles
 SCF Done:  E(RB3LYP) =  -970.375565440     A.U. after   10 cycles
 SCF Done:  E(RB3LYP) =  -970.375567303     A.U. after    9 cycles
 SCF Done:  E(RB3LYP) =  -970.375568409     A.U. after    8 cycles
 SCF Done:  E(RB3LYP) =  -970.375569825     A.U. after    9 cycles
 SCF Done:  E(RB3LYP) =  -970.375570466     A.U. after    8 cycles
 SCF Done:  E(RB3LYP) =  -970.375570588     A.U. after    7 cycles
 SCF Done:  E(RB3LYP) =  -970.375570616     A.U. after    7 cycles
 Optimization completed.
    -- Stationary point found.
 Normal termination of Gaussian 09 at Fri Feb 16 20:19:28 2018.

 --------------------------------------------------------------------
 #N Geom=AllCheck Guess=TCheck SCRF=Check GenChk RB3LYP/6-31G(d) Freq
 --------------------------------------------------------------------

 Structure from the checkpoint file:  frag24-conf1.chk
 -----------------------------
 Optimization for frag24-conf1
 -----------------------------
 Charge =  0 Multiplicity = 1

                         Standard orientation:
 ---------------------------------------------------------------------
 Center     Atomic      Atomic             Coordinates (Angstroms)
 Number     Number       Type             X           Y           Z
 ---------------------------------------------------------------------
      1          6           0       -1.822933    0.595390    0.122585
      2          6           0       -0.154332    2.386454   -0.527411
      3          6           0       -3.703528   -0.923529    0.369454
      4          6           0       -1.689399   -1.766276   -0.750466
      5          6           0        2.479127   -1.573569    1.055123
      6          6           0       -0.393456    0.882994   -0.391520
      7          7           0        0.533475    0.223387    0.568202
      8          7           0       -2.369554   -0.633378   -0.140742
      9          8           0       -2.425515    1.463316    0.749435
     10          8           0        3.057227    0.882459    0.265473
     11          8           0        1.885034   -0.672416   -1.382271
     12         16           0        2.081985   -0.178615   -0.013651
     13          1           0       -0.337248    2.893862    0.423741
     14          1           0        0.873143    2.576837   -0.851407
     15          1           0       -0.841203    2.815794   -1.263789
     16          1           0       -4.331775   -1.324124   -0.435589
     17          1           0       -4.137717   -0.002549    0.754838
     18          1           0       -3.659131   -1.668888    1.175739
     19          1           0       -1.575111   -2.579307   -0.019440
     20          1           0       -0.700516   -1.503646   -1.119128
     21          1           0       -2.283449   -2.150125   -1.590014
     22          1           0        3.478974   -1.910627    0.772016
     23          1           0        2.479362   -1.239534    2.094770
     24          1           0        1.743367   -2.362352    0.897224
     25          1           0       -0.226330    0.403279   -1.356740
     26          1           0        0.631604    0.783488    1.416287
 ---------------------------------------------------------------------

 SCF Done:  E(RB3LYP) =  -970.375570616     A.U. after    1 cycles

 Isotropic polarizability for W=    0.000000      102.40 Bohr**3.
 End of Minotr Frequency-dependent properties file   721 does not exist.

                     1                      2                      3
                     A                      A                      A
 Frequencies --    26.7653                39.5223                58.1719
 Red. masses --     4.1143                 4.8260                 3.9302
 Frc consts  --     0.0017                 0.0044                 0.0078
 IR Inten    --     1.3425                 7.5404                 4.1025

                     4                      5                      6
                     A                      A                      A
 Frequencies --    83.1001                98.7265               142.9925
 Red. masses --     2.1055                 1.9581                 1.0765
 Frc consts  --     0.0086                 0.0112                 0.0130
 IR Inten    --     0.6411                 0.2112                 0.0690

                     7                      8                      9
                     A                      A                      A
 Frequencies --   166.8189               179.8531               214.3116
 Red. masses --     3.1136                 3.6417                 1.1190
 Frc consts  --     0.0511                 0.0694                 0.0303
 IR Inten    --     8.4568                 1.9799                 0.4648

                    10                     11                     12
                     A                      A                      A
 Frequencies --   231.6883               242.5235               257.6107
 Red. masses --     1.0546                 3.6389                 2.0977
 Frc consts  --     0.0334                 0.1261                 0.0820
 IR Inten    --     0.4164                 1.1019                 3.1703

                    13                     14                     15
                     A                      A                      A
 Frequencies --   270.5821               303.8409               341.8133
 Red. masses --     3.4639                 3.9214                 3.2229
 Frc consts  --     0.1494                 0.2133                 0.2219
 IR Inten    --     2.6668                 0.9700                 9.7599

                    16                     17                     18
                     A                      A                      A
 Frequencies --   382.4739               393.8678               421.6537
 Red. masses --     3.9462                 3.5478                 2.5184
 Frc consts  --     0.3401                 0.3243                 0.2638
 IR Inten    --    17.2746                 8.2377                 7.1905

                    19                     20                     21
                     A                      A                      A
 Frequencies --   478.6240               493.9719               522.9620
 Red. masses --     6.0078                 6.7093                 3.3879
 Frc consts  --     0.8109                 0.9646                 0.5459
 IR Inten    --    10.4932                29.7335                 9.2928

                    22                     23                     24
                     A                      A                      A
 Frequencies --   617.2992               628.6210               736.3816
 Red. masses --     4.2164                 4.6493                 5.3467
 Frc consts  --     0.9466                 1.0825                 1.7082
 IR Inten    --    53.7098                49.8999                17.4887

                    25                     26                     27
                     A                      A                      A
 Frequencies --   754.0687               794.4183               876.5372
 Red. masses --     3.7406                 3.5442                 1.7725
 Frc consts  --     1.2532                 1.3178                 0.8024
 IR Inten    --    21.0417                46.6278                92.2028

                    28                     29                     30
                     A                      A                      A
 Frequencies --   926.9643               977.2284               995.9338
 Red. masses --     2.8279                 2.6933                 1.3670
 Frc consts  --     1.4317                 1.5154                 0.7989
 IR Inten    --    60.0086                20.1358                18.2931

                    31                     32                     33
                     A                      A                      A
 Frequencies --   998.5661              1064.7914              1090.9704
 Red. masses --     1.3955                 2.3065                 1.3958
 Frc consts  --     0.8198                 1.5408                 0.9788
 IR Inten    --    22.3714                 9.9894                 8.5184

                    34                     35                     36
                     A                      A                      A
 Frequencies --  1104.5890              1122.6828              1138.7986
 Red. masses --     2.2638                 3.1867                 1.2495
 Frc consts  --     1.6274                 2.3665                 0.9548
 IR Inten    --    63.9622               178.8358                 4.1447

                    37                     38                     39
                     A                      A                      A
 Frequencies --  1148.4370              1183.5267              1187.9319
 Red. masses --     2.6723                 1.8400                 1.4346
 Frc consts  --     2.0766                 1.5185                 1.1928
 IR Inten    --    34.2453                40.9297                15.8895

                    40                     41                     42
                     A                      A                      A
 Frequencies --  1282.0087              1307.2926              1328.2894
 Red. masses --     4.6744                 2.4449                 2.3772
 Frc consts  --     4.5265                 2.4619                 2.4712
 IR Inten    --    41.6506                72.1313               119.5835

                    43                     44                     45
                     A                      A                      A
 Frequencies --  1370.2539              1382.1385              1441.2326
 Red. masses --     1.4325                 1.2172                 1.2392
 Frc consts  --     1.5847                 1.3699                 1.5166
 IR Inten    --    33.8628                13.1866                 8.3072

                    46                     47                     48
                     A                      A                      A
 Frequencies --  1447.9811              1453.8998              1459.5951
 Red. masses --     1.6217                 1.2734                 1.5233
 Frc consts  --     2.0033                 1.5859                 1.9120
 IR Inten    --    64.4655                22.4735                82.2276

                    49                     50                     51
                     A                      A                      A
 Frequencies --  1484.1408              1487.1300              1503.9005
 Red. masses --     1.0494                 1.0681                 1.1627
 Frc consts  --     1.3619                 1.3918                 1.5493
 IR Inten    --     5.3543                 3.7343                10.2069

                    52                     53                     54
                     A                      A                      A
 Frequencies --  1513.2424              1516.7039              1525.3124
 Red. masses --     1.0506                 1.0434                 1.0528
 Frc consts  --     1.4174                 1.4142                 1.4431
 IR Inten    --    11.4422                 1.3973                 5.9873

                    55                     56                     57
                     A                      A                      A
 Frequencies --  1531.3863              1534.3402              1566.4160
 Red. masses --     1.0706                 1.0499                 1.2238
 Frc consts  --     1.4793                 1.4562                 1.7692
 IR Inten    --    11.3653                14.2260                30.8681

                    58                     59                     60
                     A                      A                      A
 Frequencies --  1754.4346              3025.2821              3033.8620
 Red. masses --     9.5755                 1.0433                 1.0437
 Frc consts  --    17.3654                 5.6259                 5.6601
 IR Inten    --   279.8950                27.1644                86.5001

                    61                     62                     63
                     A                      A                      A
 Frequencies --  3068.5995              3072.4329              3083.7082
 Red. masses --     1.0351                 1.1008                 1.1012
 Frc consts  --     5.7425                 6.1224                 6.1696
 IR Inten    --     9.6167                42.7289                30.3963

                    64                     65                     66
                     A                      A                      A
 Frequencies --  3088.3583              3132.3956              3141.3674
 Red. masses --     1.0298                 1.0893                 1.1008
 Frc consts  --     5.7870                 6.2975                 6.4004
 IR Inten    --     0.3812                 2.4650                20.8758

                    67                     68                     69
                     A                      A                      A
 Frequencies --  3154.3780              3183.1844              3195.3355
 Red. masses --     1.1010                 1.1063                 1.0962
 Frc consts  --     6.4545                 6.6045                 6.5943
 IR Inten    --     8.6657                 0.6361                 1.1716

                    70                     71                     72
                     A                      A                      A
 Frequencies --  3201.6962              3204.5427              3492.0025
 Red. masses --     1.1079                 1.0935                 1.0743
 Frc consts  --     6.6914                 6.6161                 7.7180
 IR Inten    --     0.7453                 2.2865                16.2746

 - Thermochemistry -
 -------------------
 Temperature   298.150 Kelvin.  Pressure   1.00000 Atm.
 Atom     1 has atomic number  6 and mass  12.00000

 Molecular mass:   194.07251 amu.
 Principal axes and moments of inertia in atomic units:
                           1         2         3
     Eigenvalues --  1299.979143599.388024253.28203
           X            0.99986   0.01215   0.01128
           Y           -0.01176   0.99934  -0.03424
           Z           -0.01169   0.03410   0.99935
 This molecule is an asymmetric top.
 Rotational symmetry number  1.
 Warning -- assumption of classical behavior for rotation
           may cause significant error
 Rotational temperatures (Kelvin)      0.06663     0.02406     0.02036
 Rotational constants (GHZ):           1.38828     0.50140     0.42432
 Zero-point vibrational energy     566231.2 (Joules/Mol)
                                  135.33250 (Kcal/Mol)
 Warning -- explicit consideration of  22 degrees of freedom as
           vibrations may cause significant error
 Vibrational temperatures:     38.51    56.86    83.70   119.56   142.05
          (Kelvin)            205.73   240.01   258.77   308.35   333.35
                              348.94   370.64   389.31   437.16   491.79
                              550.29   566.69   606.66   688.63   710.71
                              752.42   888.15   904.44  1059.49  1084.94
                             1142.99  1261.14  1333.69  1406.01  1432.92
                             1436.71  1532.00  1569.66  1589.26  1615.29
                             1638.48  1652.34  1702.83  1709.17  1844.52
                             1880.90  1911.11  1971.49  1988.59  2073.61
                             2083.32  2091.83  2100.03  2135.34  2139.65
                             2163.77  2177.22  2182.20  2194.58  2203.32
                             2207.57  2253.72  2524.24  4352.70  4365.05
                             4415.02  4420.54  4436.76  4443.45  4506.81
                             4519.72  4538.44  4579.89  4597.37  4606.52
                             4610.62  5024.21

 Zero-point correction=                           0.215666 (Hartree/Particle)
 Thermal correction to Energy=                    0.230387
 Thermal correction to Enthalpy=                  0.231331
 Thermal correction to Gibbs Free Energy=         0.172870
 Sum of electronic and zero-point Energies=           -970.159905
 Sum of electronic and thermal Energies=              -970.145184
 Sum of electronic and thermal Enthalpies=            -970.144239
 Sum of electronic and thermal Free Energies=         -970.202701

                     E (Thermal)             CV                S
                      KCal/Mol        Cal/Mol-Kelvin    Cal/Mol-Kelvin
 Total                  144.570             51.790            123.042
 Electronic               0.000              0.000              0.000
 Translational            0.889              2.981             41.695
 Rotational               0.889              2.981             31.365
 Vibrational            142.793             45.829             49.982
 Vibration     1          0.593              1.984              6.056
 Vibration     2          0.594              1.981              5.283
 Vibration     3          0.596              1.974              4.518
 Vibration     4          0.600              1.961              3.816
 Vibration     5          0.604              1.950              3.479
 Vibration     6          0.616              1.910              2.763
 Vibration     7          0.624              1.883              2.471
 Vibration     8          0.629              1.867              2.330
 Vibration     9          0.644              1.819              2.007
 Vibration    10          0.653              1.793              1.866
 Vibration    11          0.659              1.775              1.784
 Vibration    12          0.667              1.750              1.678
 Vibration    13          0.674              1.727              1.592
 Vibration    14          0.695              1.666              1.396
 Vibration    15          0.721              1.592              1.204
 Vibration    16          0.752              1.508              1.029
 Vibration    17          0.761              1.483              0.985
 Vibration    18          0.784              1.423              0.886
 Vibration    19          0.835              1.297              0.714
 Vibration    20          0.850              1.263              0.673
 Vibration    21          0.878              1.199              0.603
 Vibration    22          0.977              0.995              0.421

 Optimization completed.
    -- Stationary point found.
 Normal termination of Gaussian 09 at Fri Feb 16 20:40:11 2018.
