 Gaussian 09, Revision C.01,
 Gaussian 09:  AM64L-G09RevC.01 23-Sep-2011

 ----------------------------------------------------------------------
 #HF/6-31G* Geom=AllCheck Guess=Read Pop=(MK,ReadRadii) Integral=(Grid=
 UltraFine) iop(6/33=2)
 ----------------------------------------------------------------------

 Structure from the checkpoint file:  frag24-conf1.chk
 -----------------------------
 Optimization for frag24-conf1
 -----------------------------
 Charge =  0 Multiplicity = 1

                         Standard orientation:
 ---------------------------------------------------------------------
 Center     Atomic      Atomic             Coordinates (Angstroms)
 Number     Number       Type             X           Y           Z
 ---------------------------------------------------------------------
      1          6           0       -1.822933    0.595390    0.122585
      2          6           0       -0.154332    2.386454   -0.527411
      3          6           0       -3.703528   -0.923529    0.369454
      4          6           0       -1.689399   -1.766276   -0.750466
      5          6           0        2.479127   -1.573569    1.055123
      6          6           0       -0.393456    0.882994   -0.391520
      7          7           0        0.533475    0.223387    0.568202
      8          7           0       -2.369554   -0.633378   -0.140742
      9          8           0       -2.425515    1.463316    0.749435
     10          8           0        3.057227    0.882459    0.265473
     11          8           0        1.885034   -0.672416   -1.382271
     12         16           0        2.081985   -0.178615   -0.013651
     13          1           0       -0.337248    2.893862    0.423741
     14          1           0        0.873143    2.576837   -0.851407
     15          1           0       -0.841203    2.815794   -1.263789
     16          1           0       -4.331775   -1.324124   -0.435589
     17          1           0       -4.137717   -0.002549    0.754838
     18          1           0       -3.659131   -1.668888    1.175739
     19          1           0       -1.575111   -2.579307   -0.019440
     20          1           0       -0.700516   -1.503646   -1.119128
     21          1           0       -2.283449   -2.150125   -1.590014
     22          1           0        3.478974   -1.910627    0.772016
     23          1           0        2.479362   -1.239534    2.094770
     24          1           0        1.743367   -2.362352    0.897224
     25          1           0       -0.226330    0.403279   -1.356740
     26          1           0        0.631604    0.783488    1.416287
 ---------------------------------------------------------------------

 SCF Done:  E(RHF) =  -966.277922970     A.U. after   13 cycles

 The electronic state is 1-A.
 Alpha  occ. eigenvalues --  -92.22203 -20.56962 -20.56753 -20.53080 -15.62343
 Alpha  occ. eigenvalues --  -15.59967 -11.36096 -11.29841 -11.28959 -11.27265
 Alpha  occ. eigenvalues --  -11.25925 -11.22569  -9.19365  -6.87947  -6.87921
 Alpha  occ. eigenvalues --   -6.87839  -1.46285  -1.38350  -1.34488  -1.25158
 Alpha  occ. eigenvalues --   -1.24082  -1.06603  -1.02123  -0.97639  -0.95196
 Alpha  occ. eigenvalues --   -0.88153  -0.83775  -0.75603  -0.73290  -0.69758
 Alpha  occ. eigenvalues --   -0.67998  -0.67567  -0.65506  -0.65307  -0.62783
 Alpha  occ. eigenvalues --   -0.61319  -0.60815  -0.59325  -0.59052  -0.56981
 Alpha  occ. eigenvalues --   -0.56097  -0.54031  -0.53739  -0.52691  -0.51485
 Alpha  occ. eigenvalues --   -0.51355  -0.49814  -0.47896  -0.46573  -0.44905
 Alpha  occ. eigenvalues --   -0.41175  -0.37378
 Alpha virt. eigenvalues --    0.16811   0.19707   0.22201   0.23273   0.23827
 Alpha virt. eigenvalues --    0.25271   0.25644   0.27120   0.27752   0.29050
 Alpha virt. eigenvalues --    0.29460   0.30221   0.30552   0.31017   0.32117

 Mulliken atomic charges:
              1
     1  C    0.818994
     2  C   -0.482435
     3  C   -0.295289
     4  C   -0.292093
     5  C   -0.705257
     6  C   -0.132313
     7  N   -0.886974
     8  N   -0.666471
     9  O   -0.630326
    10  O   -0.676541
    11  O   -0.708753
    12  S    1.614848
    13  H    0.192303
    14  H    0.195537
    15  H    0.181872
    16  H    0.166301
    17  H    0.237174
    18  H    0.162451
    19  H    0.166406
    20  H    0.216956
    21  H    0.175563
    22  H    0.238805
    23  H    0.222441
    24  H    0.230929
    25  H    0.252769
    26  H    0.403100
 Sum of Mulliken atomic charges =   0.00000

 Dipole moment (field-independent basis, Debye):
    X=             -0.9893    Y=             -4.1282    Z=              1.6366  Tot=              4.5496
 Quadrupole moment (field-independent basis, Debye-Ang):
   XX=            -89.0534   YY=            -79.0854   ZZ=            -80.6429
   XY=              0.4981   XZ=             10.7931   YZ=             -5.4223

 Normal termination of Gaussian 09 at Sat Feb 17 21:00:39 2018.
