 Gaussian 09, Revision C.01,
 Gaussian 09:  AM64L-G09RevC.01 23-Sep-2011

 ----------------------------------------------------------------------
 #HF/6-31G* Geom=AllCheck Guess=Read Pop=(MK,ReadRadii) Integral=(Grid=
 UltraFine) iop(6/33=2)
 ----------------------------------------------------------------------

 Structure from the checkpoint file:  frag3-conf0.chk
 ----------------------------
 Optimization for frag3-conf0
 ----------------------------
 Charge =  1 Multiplicity = 1

                         Standard orientation:
 ---------------------------------------------------------------------
 Center     Atomic      Atomic             Coordinates (Angstroms)
 Number     Number       Type             X           Y           Z
 ---------------------------------------------------------------------
      1          6           0        3.529913   -0.591559   -0.078410
      2          6           0        3.237217    0.431916    0.826104
      3          6           0        2.647980   -0.867968   -1.125380
      4          6           0        2.061913    1.170521    0.687226
      5          6           0        1.470734   -0.129900   -1.262447
      6          6           0        1.164536    0.890109   -0.352636
      7          6           0       -1.860498   -0.183419   -0.058983
      8          6           0       -1.941434   -2.597598   -0.118969
      9          6           0       -0.359176   -1.513495    1.437677
     10          6           0       -0.118531    1.682967   -0.487117
     11          6           0       -1.273597    1.179630    0.415735
     12          7           0       -1.394106   -1.342542    0.416222
     13          7           0       -2.460397    2.108845    0.208996
     14          8           0       -2.768255   -0.086093   -0.905823
     15          1           0        4.449076   -1.160691    0.023413
     16          1           0        3.929042    0.663726    1.630404
     17          1           0        2.881989   -1.648005   -1.843935
     18          1           0        1.852189    1.980685    1.383418
     19          1           0        0.796287   -0.338975   -2.089763
     20          1           0       -1.136456   -3.175627   -0.584086
     21          1           0       -2.708834   -2.372109   -0.856159
     22          1           0       -2.372299   -3.183512    0.699210
     23          1           0       -0.767534   -2.102536    2.265525
     24          1           0       -0.000251   -0.560707    1.819288
     25          1           0        0.496114   -2.044602    1.009452
     26          1           0        0.072214    2.732699   -0.224640
     27          1           0       -0.471560    1.660243   -1.525452
     28          1           0       -1.002500    1.214025    1.470663
     29          1           0       -2.185959    3.050355   -0.086726
     30          1           0       -3.062988    2.185134    1.034586
     31          1           0       -2.995313    1.597310   -0.551941
 ---------------------------------------------------------------------

 SCF Done:  E(RHF) =  -610.004010485     A.U. after   14 cycles

 The electronic state is 1-A.
 Alpha  occ. eigenvalues --  -20.68832 -15.85821 -15.75133 -11.52176 -11.48109
 Alpha  occ. eigenvalues --  -11.40539 -11.39692 -11.38001 -11.37157 -11.35698
 Alpha  occ. eigenvalues --  -11.35568 -11.34984 -11.34930 -11.34748  -1.54836
 Alpha  occ. eigenvalues --   -1.46667  -1.39599  -1.27733  -1.21826  -1.13975
 Alpha  occ. eigenvalues --   -1.12826  -1.10403  -1.08598  -1.03709  -0.95417
 Alpha  occ. eigenvalues --   -0.94349  -0.93975  -0.90552  -0.88583  -0.83390
 Alpha  occ. eigenvalues --   -0.82842  -0.80750  -0.79284  -0.77754  -0.75927
 Alpha  occ. eigenvalues --   -0.74891  -0.73154  -0.70848  -0.70025  -0.69341
 Alpha  occ. eigenvalues --   -0.68957  -0.68696  -0.67351  -0.66786  -0.66318
 Alpha  occ. eigenvalues --   -0.60940  -0.60698  -0.60505  -0.58731  -0.51926
 Alpha  occ. eigenvalues --   -0.44869  -0.44692
 Alpha virt. eigenvalues --    0.00752   0.01425   0.02122   0.02706   0.07234
 Alpha virt. eigenvalues --    0.10059   0.11618   0.12417   0.14200   0.14335
 Alpha virt. eigenvalues --    0.16098   0.16626   0.18234   0.18417   0.19670

 Mulliken atomic charges:
              1
     1  C   -0.196716
     2  C   -0.194370
     3  C   -0.201514
     4  C   -0.228470
     5  C   -0.221107
     6  C    0.012265
     7  C    0.831460
     8  C   -0.318470
     9  C   -0.304336
    10  C   -0.382951
    11  C   -0.129258
    12  N   -0.653812
    13  N   -0.899729
    14  O   -0.682493
    15  H    0.238758
    16  H    0.235685
    17  H    0.235921
    18  H    0.208668
    19  H    0.223448
    20  H    0.202965
    21  H    0.254111
    22  H    0.202606
    23  H    0.209439
    24  H    0.188836
    25  H    0.223202
    26  H    0.214007
    27  H    0.234106
    28  H    0.261101
    29  H    0.459685
    30  H    0.460455
    31  H    0.516507
 Sum of Mulliken atomic charges =   1.00000

 Dipole moment (field-independent basis, Debye):
    X=             -4.7902    Y=              4.7382    Z=              3.4051  Tot=              7.5492
 Quadrupole moment (field-independent basis, Debye-Ang):
   XX=            -58.3534   YY=            -52.6901   ZZ=            -76.9502
   XY=            -18.3752   XZ=             -5.4785   YZ=              3.7345

 Normal termination of Gaussian 09 at Sun Feb 18 17:07:32 2018.
