 Gaussian 09, Revision C.01,
 Gaussian 09:  AM64L-G09RevC.01 23-Sep-2011

 ---------------------------------------------------------
 #B3LYP/6-31G* Integral=(Grid=UltraFine) freq Opt pop=none
 ---------------------------------------------------------

 99/9=1/99;
 ----------------------------
 Optimization for frag3-conf0
 ----------------------------
 Charge =  1 Multiplicity = 1

 SCF Done:  E(RB3LYP) =  -613.898787057     A.U. after   15 cycles
 SCF Done:  E(RB3LYP) =  -613.907236818     A.U. after   14 cycles
 SCF Done:  E(RB3LYP) =  -613.913274653     A.U. after   15 cycles
 SCF Done:  E(RB3LYP) =  -613.915185167     A.U. after   15 cycles
 SCF Done:  E(RB3LYP) =  -613.918014138     A.U. after   14 cycles
 SCF Done:  E(RB3LYP) =  -613.918570277     A.U. after   13 cycles
 SCF Done:  E(RB3LYP) =  -613.919675054     A.U. after   12 cycles
 SCF Done:  E(RB3LYP) =  -613.919932943     A.U. after   12 cycles
 SCF Done:  E(RB3LYP) =  -613.920425254     A.U. after   12 cycles
 SCF Done:  E(RB3LYP) =  -613.920643922     A.U. after   12 cycles
 SCF Done:  E(RB3LYP) =  -613.920947213     A.U. after   11 cycles
 SCF Done:  E(RB3LYP) =  -613.920968071     A.U. after   11 cycles
 SCF Done:  E(RB3LYP) =  -613.920972722     A.U. after   10 cycles
 SCF Done:  E(RB3LYP) =  -613.920973516     A.U. after    8 cycles
 SCF Done:  E(RB3LYP) =  -613.920973768     A.U. after    7 cycles
 SCF Done:  E(RB3LYP) =  -613.920973956     A.U. after    7 cycles
 SCF Done:  E(RB3LYP) =  -613.920974254     A.U. after    7 cycles
 SCF Done:  E(RB3LYP) =  -613.920974505     A.U. after    7 cycles
 SCF Done:  E(RB3LYP) =  -613.920974595     A.U. after    7 cycles
 Optimization completed.
    -- Stationary point found.
 Normal termination of Gaussian 09 at Sat Feb 17 21:57:28 2018.

 --------------------------------------------------------------------
 #N Geom=AllCheck Guess=TCheck SCRF=Check GenChk RB3LYP/6-31G(d) Freq
 --------------------------------------------------------------------

 Structure from the checkpoint file:  frag3-conf0.chk
 ----------------------------
 Optimization for frag3-conf0
 ----------------------------
 Charge =  1 Multiplicity = 1

                         Standard orientation:
 ---------------------------------------------------------------------
 Center     Atomic      Atomic             Coordinates (Angstroms)
 Number     Number       Type             X           Y           Z
 ---------------------------------------------------------------------
      1          6           0        3.529913   -0.591559   -0.078410
      2          6           0        3.237217    0.431916    0.826104
      3          6           0        2.647980   -0.867968   -1.125380
      4          6           0        2.061913    1.170521    0.687226
      5          6           0        1.470734   -0.129900   -1.262447
      6          6           0        1.164536    0.890109   -0.352636
      7          6           0       -1.860498   -0.183419   -0.058983
      8          6           0       -1.941434   -2.597598   -0.118969
      9          6           0       -0.359176   -1.513495    1.437677
     10          6           0       -0.118531    1.682967   -0.487117
     11          6           0       -1.273597    1.179630    0.415735
     12          7           0       -1.394106   -1.342542    0.416222
     13          7           0       -2.460397    2.108845    0.208996
     14          8           0       -2.768255   -0.086093   -0.905823
     15          1           0        4.449076   -1.160691    0.023413
     16          1           0        3.929042    0.663726    1.630404
     17          1           0        2.881989   -1.648005   -1.843935
     18          1           0        1.852189    1.980685    1.383418
     19          1           0        0.796287   -0.338975   -2.089763
     20          1           0       -1.136456   -3.175627   -0.584086
     21          1           0       -2.708834   -2.372109   -0.856159
     22          1           0       -2.372299   -3.183512    0.699210
     23          1           0       -0.767534   -2.102536    2.265525
     24          1           0       -0.000251   -0.560707    1.819288
     25          1           0        0.496114   -2.044602    1.009452
     26          1           0        0.072214    2.732699   -0.224640
     27          1           0       -0.471560    1.660243   -1.525452
     28          1           0       -1.002500    1.214025    1.470663
     29          1           0       -2.185959    3.050355   -0.086726
     30          1           0       -3.062988    2.185134    1.034586
     31          1           0       -2.995313    1.597310   -0.551941
 ---------------------------------------------------------------------

 SCF Done:  E(RB3LYP) =  -613.920974595     A.U. after    1 cycles

 Isotropic polarizability for W=    0.000000      123.31 Bohr**3.
 End of Minotr Frequency-dependent properties file   721 does not exist.

                     1                      2                      3
                     A                      A                      A
 Frequencies --    36.7394                58.0621                65.7977
 Red. masses --     4.0853                 3.5837                 3.8663
 Frc consts  --     0.0032                 0.0071                 0.0099
 IR Inten    --     1.5813                 1.8031                 2.9402

                     4                      5                      6
                     A                      A                      A
 Frequencies --    88.8502               105.9258               114.0141
 Red. masses --     1.5311                 2.1285                 2.2011
 Frc consts  --     0.0071                 0.0141                 0.0169
 IR Inten    --     0.4877                 8.0015                 1.4061

                     7                      8                      9
                     A                      A                      A
 Frequencies --   131.4755               200.0201               233.9147
 Red. masses --     1.2798                 3.6227                 3.2343
 Frc consts  --     0.0130                 0.0854                 0.1043
 IR Inten    --     0.7361                 2.9794                 6.4811

                    10                     11                     12
                     A                      A                      A
 Frequencies --   277.7388               306.2900               314.9632
 Red. masses --     2.5543                 3.3606                 1.2669
 Frc consts  --     0.1161                 0.1858                 0.0740
 IR Inten    --     2.1325                11.1711                 3.6019

                    13                     14                     15
                     A                      A                      A
 Frequencies --   335.2357               358.3288               394.8596
 Red. masses --     2.4894                 2.2186                 2.8409
 Frc consts  --     0.1648                 0.1678                 0.2610
 IR Inten    --     1.9264                 2.3407                11.5101

                    16                     17                     18
                     A                      A                      A
 Frequencies --   417.7045               434.5046               480.5746
 Red. masses --     2.9607                 3.5970                 3.5845
 Frc consts  --     0.3044                 0.4001                 0.4878
 IR Inten    --     0.0239                84.8138                31.0714

                    19                     20                     21
                     A                      A                      A
 Frequencies --   514.5662               604.5104               623.1952
 Red. masses --     3.2979                 5.0238                 4.8969
 Frc consts  --     0.5145                 1.0817                 1.1205
 IR Inten    --    13.4320                 3.9654                 8.1443

                    22                     23                     24
                     A                      A                      A
 Frequencies --   634.6351               715.2481               722.5023
 Red. masses --     6.3588                 2.8408                 3.0926
 Frc consts  --     1.5089                 0.8563                 0.9512
 IR Inten    --     0.1959                19.2956                 3.8229

                    25                     26                     27
                     A                      A                      A
 Frequencies --   751.5122               774.2923               834.7112
 Red. masses --     2.8024                 1.9235                 4.0804
 Frc consts  --     0.9325                 0.6794                 1.6750
 IR Inten    --     9.8303                51.1723                 0.9633

                    28                     29                     30
                     A                      A                      A
 Frequencies --   864.5688               906.9440               942.1522
 Red. masses --     1.2501                 2.4805                 1.5620
 Frc consts  --     0.5505                 1.2021                 0.8169
 IR Inten    --     0.0350                 5.4855                 0.6437

                    31                     32                     33
                     A                      A                      A
 Frequencies --   947.1901               960.5612               979.1786
 Red. masses --     1.9044                 2.3817                 1.3528
 Frc consts  --     1.0067                 1.2947                 0.7642
 IR Inten    --    29.2190                 4.0561                 0.0882

                    34                     35                     36
                     A                      A                      A
 Frequencies --   990.1200              1015.2082              1018.7705
 Red. masses --     2.9692                 1.5497                 3.3835
 Frc consts  --     1.7150                 0.9410                 2.0691
 IR Inten    --     5.7982                 0.5481                 1.9279

                    37                     38                     39
                     A                      A                      A
 Frequencies --  1057.5403              1081.3426              1093.3286
 Red. masses --     2.2452                 1.4654                 1.4812
 Frc consts  --     1.4794                 1.0096                 1.0432
 IR Inten    --     0.6343                16.1042                33.9650

                    40                     41                     42
                     A                      A                      A
 Frequencies --  1115.9327              1130.5344              1146.7705
 Red. masses --     1.4358                 1.2301                 1.3890
 Frc consts  --     1.0535                 0.9263                 1.0762
 IR Inten    --    32.3246                 0.9479                12.3590

                    43                     44                     45
                     A                      A                      A
 Frequencies --  1180.0138              1184.2320              1199.7174
 Red. masses --     1.7242                 1.3781                 1.1089
 Frc consts  --     1.4145                 1.1387                 0.9403
 IR Inten    --    44.8453                 0.7836                 0.0951

                    46                     47                     48
                     A                      A                      A
 Frequencies --  1217.4422              1221.8567              1234.1350
 Red. masses --     1.1503                 1.5763                 2.4927
 Frc consts  --     1.0045                 1.3865                 2.2369
 IR Inten    --     0.4215                 0.9759                 0.9054

                    49                     50                     51
                     A                      A                      A
 Frequencies --  1266.0289              1340.4112              1353.7518
 Red. masses --     4.0765                 1.8768                 1.2691
 Frc consts  --     3.8497                 1.9867                 1.3703
 IR Inten    --    43.9598                 0.1176                 4.9954

                    52                     53                     54
                     A                      A                      A
 Frequencies --  1366.4063              1381.8262              1385.9141
 Red. masses --     2.6568                 1.3360                 1.3998
 Frc consts  --     2.9226                 1.5030                 1.5841
 IR Inten    --     1.0609                 2.0784                43.8989

                    55                     56                     57
                     A                      A                      A
 Frequencies --  1435.9100              1462.6598              1473.8301
 Red. masses --     1.2418                 1.1543                 2.1022
 Frc consts  --     1.5085                 1.4549                 2.6905
 IR Inten    --   474.7288                 9.0299                17.9817

                    58                     59                     60
                     A                      A                      A
 Frequencies --  1501.3011              1503.5991              1505.1239
 Red. masses --     1.1804                 1.2376                 1.5313
 Frc consts  --     1.5675                 1.6486                 2.0439
 IR Inten    --     5.6404                 6.3021                21.1427

                    61                     62                     63
                     A                      A                      A
 Frequencies --  1515.5936              1526.1507              1528.2606
 Red. masses --     1.1219                 1.0914                 1.0480
 Frc consts  --     1.5183                 1.4977                 1.4421
 IR Inten    --     8.7946                11.2866                30.7981

                    64                     65                     66
                     A                      A                      A
 Frequencies --  1546.0416              1562.6413              1644.3152
 Red. masses --     2.1730                 1.4358                 5.2942
 Frc consts  --     3.0601                 2.0656                 8.4337
 IR Inten    --     8.1539                50.2334                 2.9885

                    67                     68                     69
                     A                      A                      A
 Frequencies --  1654.0065              1660.5727              1696.0144
 Red. masses --     1.1064                 5.3095                 1.0512
 Frc consts  --     1.7833                 8.6263                 1.7816
 IR Inten    --    44.1365                 0.1665                52.4623

                    70                     71                     72
                     A                      A                      A
 Frequencies --  1749.7966              2931.2581              3036.9670
 Red. masses --     4.7639                 1.0688                 1.0618
 Frc consts  --     8.5939                 5.4109                 5.7702
 IR Inten    --   205.2833               291.4802                22.6058

                    73                     74                     75
                     A                      A                      A
 Frequencies --  3070.3125              3075.3621              3090.8730
 Red. masses --     1.0370                 1.0384                 1.1024
 Frc consts  --     5.7594                 5.7867                 6.2049
 IR Inten    --     8.9241                21.7205                 3.9668

                    76                     77                     78
                     A                      A                      A
 Frequencies --  3133.8125              3135.9563              3157.8153
 Red. masses --     1.1061                 1.1058                 1.0890
 Frc consts  --     6.4000                 6.4071                 6.3978
 IR Inten    --    12.5342                 3.9364                 3.1596

                    79                     80                     81
                     A                      A                      A
 Frequencies --  3171.7663              3183.4174              3203.7469
 Red. masses --     1.0893                 1.0892                 1.0889
 Frc consts  --     6.4567                 6.5033                 6.5849
 IR Inten    --     9.1131                 5.5700                 0.6299

                    82                     83                     84
                     A                      A                      A
 Frequencies --  3209.8420              3212.4589              3214.3749
 Red. masses --     1.0975                 1.0933                 1.1003
 Frc consts  --     6.6622                 6.6476                 6.6982
 IR Inten    --     8.1389                 9.7650                 1.0457

                    85                     86                     87
                     A                      A                      A
 Frequencies --  3223.1454              3452.3741              3520.0279
 Red. masses --     1.0977                 1.0542                 1.0958
 Frc consts  --     6.7190                 7.4033                 8.0000
 IR Inten    --     5.5172                84.6006                78.2720

 - Thermochemistry -
 -------------------
 Temperature   298.150 Kelvin.  Pressure   1.00000 Atm.
 Atom     1 has atomic number  6 and mass  12.00000

 Molecular mass:   193.13409 amu.
 Principal axes and moments of inertia in atomic units:
                           1         2         3
     Eigenvalues --  1736.349413600.485794441.99804
           X            0.99994  -0.01072   0.00004
           Y            0.01072   0.99993   0.00455
           Z           -0.00009  -0.00455   0.99999
 This molecule is an asymmetric top.
 Rotational symmetry number  1.
 Warning -- assumption of classical behavior for rotation
           may cause significant error
 Rotational temperatures (Kelvin)      0.04988     0.02406     0.01950
 Rotational constants (GHZ):           1.03939     0.50125     0.40629
 Zero-point vibrational energy     718365.8 (Joules/Mol)
                                  171.69354 (Kcal/Mol)
 Warning -- explicit consideration of  20 degrees of freedom as
           vibrations may cause significant error
 Vibrational temperatures:     52.86    83.54    94.67   127.84   152.40
          (Kelvin)            164.04   189.16   287.78   336.55   399.60
                              440.68   453.16   482.33   515.55   568.11
                              600.98   625.15   691.44   740.35   869.75
                              896.64   913.10  1029.08  1039.52  1081.26
                             1114.03  1200.96  1243.92  1304.89  1355.55
                             1362.79  1382.03  1408.82  1424.56  1460.66
                             1465.78  1521.56  1555.81  1573.05  1605.58
                             1626.58  1649.94  1697.77  1703.84  1726.12
                             1751.63  1757.98  1775.64  1821.53  1928.55
                             1947.74  1965.95  1988.14  1994.02  2065.95
                             2104.44  2120.51  2160.03  2163.34  2165.53
                             2180.60  2195.79  2198.82  2224.41  2248.29
                             2365.80  2379.74  2389.19  2440.18  2517.56
                             4217.42  4369.51  4417.49  4424.75  4447.07
                             4508.85  4511.94  4543.39  4563.46  4580.22
                             4609.47  4618.24  4622.01  4624.76  4637.38
                             4967.19  5064.53

 Zero-point correction=                           0.273611 (Hartree/Particle)
 Thermal correction to Energy=                    0.287860
 Thermal correction to Enthalpy=                  0.288804
 Thermal correction to Gibbs Free Energy=         0.231876
 Sum of electronic and zero-point Energies=           -613.647364
 Sum of electronic and thermal Energies=              -613.633115
 Sum of electronic and thermal Enthalpies=            -613.632171
 Sum of electronic and thermal Free Energies=         -613.689099

                     E (Thermal)             CV                S
                      KCal/Mol        Cal/Mol-Kelvin    Cal/Mol-Kelvin
 Total                  180.635             53.357            119.815
 Electronic               0.000              0.000              0.000
 Translational            0.889              2.981             41.680
 Rotational               0.889              2.981             31.696
 Vibrational            178.857             47.395             46.439
 Vibration     1          0.594              1.982              5.428
 Vibration     2          0.596              1.974              4.522
 Vibration     3          0.597              1.971              4.275
 Vibration     4          0.602              1.957              3.685
 Vibration     5          0.605              1.944              3.342
 Vibration     6          0.607              1.938              3.199
 Vibration     7          0.612              1.922              2.924
 Vibration     8          0.638              1.840              2.133
 Vibration     9          0.654              1.789              1.849
 Vibration    10          0.679              1.715              1.548
 Vibration    11          0.697              1.662              1.382
 Vibration    12          0.702              1.645              1.336
 Vibration    13          0.716              1.605              1.235
 Vibration    14          0.733              1.558              1.129
 Vibration    15          0.762              1.481              0.982
 Vibration    16          0.781              1.432              0.900
 Vibration    17          0.795              1.395              0.844
 Vibration    18          0.837              1.293              0.709
 Vibration    19          0.870              1.218              0.623
 Vibration    20          0.963              1.022              0.442

 Optimization completed.
    -- Stationary point found.
 Normal termination of Gaussian 09 at Sat Feb 17 22:29:58 2018.
