 Gaussian 09, Revision C.01,
 Gaussian 09:  AM64L-G09RevC.01 23-Sep-2011

 ---------------------------------------------------------
 #B3LYP/6-31G* Integral=(Grid=UltraFine) freq Opt pop=none
 ---------------------------------------------------------

 99/9=1/99;
 -----------------------------
 Optimization for frag38-conf2
 -----------------------------
 Charge =  0 Multiplicity = 1

 SCF Done:  E(RB3LYP) =  -533.909920387     A.U. after   15 cycles
 SCF Done:  E(RB3LYP) =  -533.915950547     A.U. after   12 cycles
 SCF Done:  E(RB3LYP) =  -533.916357796     A.U. after   11 cycles
 SCF Done:  E(RB3LYP) =  -533.916353118     A.U. after   12 cycles
 SCF Done:  E(RB3LYP) =  -533.916717886     A.U. after   12 cycles
 SCF Done:  E(RB3LYP) =  -533.916954808     A.U. after   12 cycles
 SCF Done:  E(RB3LYP) =  -533.917109914     A.U. after   13 cycles
 SCF Done:  E(RB3LYP) =  -533.917146836     A.U. after   12 cycles
 SCF Done:  E(RB3LYP) =  -533.917211828     A.U. after   13 cycles
 SCF Done:  E(RB3LYP) =  -533.917242957     A.U. after   10 cycles
 SCF Done:  E(RB3LYP) =  -533.914221401     A.U. after   15 cycles
 SCF Done:  E(RB3LYP) =  -533.917782276     A.U. after   14 cycles
 SCF Done:  E(RB3LYP) =  -533.917887450     A.U. after   12 cycles
 SCF Done:  E(RB3LYP) =  -533.917919157     A.U. after   10 cycles
 SCF Done:  E(RB3LYP) =  -533.917935876     A.U. after   11 cycles
 SCF Done:  E(RB3LYP) =  -533.917949451     A.U. after   10 cycles
 SCF Done:  E(RB3LYP) =  -533.917956391     A.U. after    9 cycles
 SCF Done:  E(RB3LYP) =  -533.917957021     A.U. after    8 cycles
 SCF Done:  E(RB3LYP) =  -533.917957113     A.U. after    7 cycles
 Optimization completed.
    -- Stationary point found.
 Normal termination of Gaussian 09 at Fri Feb 16 21:55:39 2018.

 --------------------------------------------------------------------
 #N Geom=AllCheck Guess=TCheck SCRF=Check GenChk RB3LYP/6-31G(d) Freq
 --------------------------------------------------------------------

 Structure from the checkpoint file:  frag38-conf2.chk
 -----------------------------
 Optimization for frag38-conf2
 -----------------------------
 Charge =  0 Multiplicity = 1

                         Standard orientation:
 ---------------------------------------------------------------------
 Center     Atomic      Atomic             Coordinates (Angstroms)
 Number     Number       Type             X           Y           Z
 ---------------------------------------------------------------------
      1          6           0        1.199594    0.055836    0.153369
      2          6           0       -1.870639   -0.843228   -0.079454
      3          6           0       -0.232165    2.186346   -0.165571
      4          6           0       -1.620146    1.644142    0.272614
      5          6           0        0.106690    0.743672   -0.674383
      6          6           0       -1.145433   -2.082991   -0.572871
      7          6           0        3.588980   -0.585396    0.164705
      8          7           0       -1.263446    0.358968   -0.332988
      9          7           0        2.403500   -0.047255   -0.480606
     10          8           0        0.999433   -0.320430    1.301421
     11          8           0       -2.945774   -0.884237    0.504092
     12          1           0       -0.261675    2.935162   -0.959838
     13          1           0        0.404623    2.536975    0.648386
     14          1           0       -1.772404    1.573384    1.354415
     15          1           0       -2.493338    2.122511   -0.183189
     16          1           0        0.326609    0.677531   -1.749707
     17          1           0       -0.447600   -2.419759    0.201633
     18          1           0       -0.576094   -1.905193   -1.491878
     19          1           0       -1.882136   -2.869678   -0.746312
     20          1           0        3.303527   -0.876512    1.176408
     21          1           0        4.387118    0.164387    0.217005
     22          1           0        3.964046   -1.465608   -0.370115
     23          1           0        2.476397    0.271867   -1.436220
 ---------------------------------------------------------------------

 SCF Done:  E(RB3LYP) =  -533.917957113     A.U. after    1 cycles

 Isotropic polarizability for W=    0.000000       89.61 Bohr**3.
 End of Minotr Frequency-dependent properties file   721 does not exist.

                     1                      2                      3
                     A                      A                      A
 Frequencies --    27.3504                56.6397                73.5889
 Red. masses --     4.2640                 4.9356                 1.6308
 Frc consts  --     0.0019                 0.0093                 0.0052
 IR Inten    --     3.0510                 0.5665                 1.7345

                     4                      5                      6
                     A                      A                      A
 Frequencies --    81.0971               119.1125               134.1885
 Red. masses --     1.5883                 1.0948                 2.7027
 Frc consts  --     0.0062                 0.0092                 0.0287
 IR Inten    --     0.5346                 0.1546                 0.1806

                     7                      8                      9
                     A                      A                      A
 Frequencies --   153.8772               177.3672               236.4346
 Red. masses --     2.8603                 3.6688                 3.7576
 Frc consts  --     0.0399                 0.0680                 0.1238
 IR Inten    --     9.0194                12.8666                 1.9686

                    10                     11                     12
                     A                      A                      A
 Frequencies --   261.1358               325.8507               371.5454
 Red. masses --     3.3796                 5.2743                 4.0133
 Frc consts  --     0.1358                 0.3300                 0.3264
 IR Inten    --     7.3037                 5.6975                17.7464

                    13                     14                     15
                     A                      A                      A
 Frequencies --   401.2905               471.4165               572.2047
 Red. masses --     4.5041                 1.1821                 3.9188
 Frc consts  --     0.4273                 0.1548                 0.7560
 IR Inten    --    12.0797                75.2853                 4.9729

                    16                     17                     18
                     A                      A                      A
 Frequencies --   593.5906               646.7006               693.6662
 Red. masses --     2.9413                 3.7863                 2.8535
 Frc consts  --     0.6106                 0.9330                 0.8090
 IR Inten    --     7.5584                 9.3018                 3.6249

                    19                     20                     21
                     A                      A                      A
 Frequencies --   757.1998               803.4655               865.5944
 Red. masses --     4.6396                 1.3397                 2.4405
 Frc consts  --     1.5673                 0.5096                 1.0774
 IR Inten    --     0.9313                 1.4956                 0.1398

                    22                     23                     24
                     A                      A                      A
 Frequencies --   914.3694               953.0329               972.5617
 Red. masses --     3.8878                 2.8064                 2.4651
 Frc consts  --     1.9151                 1.5018                 1.3738
 IR Inten    --     5.8451                 3.5719                 4.6374

                    25                     26                     27
                     A                      A                      A
 Frequencies --   994.7807              1065.2151              1073.4944
 Red. masses --     2.1728                 1.7186                 4.0299
 Frc consts  --     1.2668                 1.1490                 2.7362
 IR Inten    --    11.8340                11.7702                15.4988

                    28                     29                     30
                     A                      A                      A
 Frequencies --  1086.6612              1127.9587              1160.6437
 Red. masses --     1.8196                 2.7262                 1.2752
 Frc consts  --     1.2659                 2.0436                 1.0121
 IR Inten    --     8.6203                 2.7860                 1.1326

                    31                     32                     33
                     A                      A                      A
 Frequencies --  1167.2935              1179.5704              1212.3056
 Red. masses --     1.2320                 1.6437                 3.0270
 Frc consts  --     0.9891                 1.3475                 2.6211
 IR Inten    --     1.3318                39.3603                27.8470

                    34                     35                     36
                     A                      A                      A
 Frequencies --  1220.5037              1236.8905              1267.4971
 Red. masses --     1.2717                 1.7915                 1.3726
 Frc consts  --     1.1161                 1.6148                 1.2992
 IR Inten    --    10.5765               118.0763                 2.4448

                    37                     38                     39
                     A                      A                      A
 Frequencies --  1286.4827              1334.2799              1389.4198
 Red. masses --     1.6835                 1.5361                 1.5367
 Frc consts  --     1.6416                 1.6112                 1.7479
 IR Inten    --    17.8968                 7.1778                31.9232

                    40                     41                     42
                     A                      A                      A
 Frequencies --  1403.7507              1439.2397              1460.9624
 Red. masses --     1.4540                 3.1932                 1.1745
 Frc consts  --     1.6881                 3.8971                 1.4770
 IR Inten    --    35.9084               301.4347                16.6806

                    43                     44                     45
                     A                      A                      A
 Frequencies --  1505.9908              1511.3195              1514.8058
 Red. masses --     1.0573                 1.0840                 1.1352
 Frc consts  --     1.4128                 1.4588                 1.5347
 IR Inten    --     4.8479                 4.6057                11.4629

                    46                     47                     48
                     A                      A                      A
 Frequencies --  1519.6789              1529.7271              1546.8090
 Red. masses --     1.1985                 1.0449                 1.1044
 Frc consts  --     1.6308                 1.4407                 1.5568
 IR Inten    --    70.8435                 7.7351                 4.7002

                    49                     50                     51
                     A                      A                      A
 Frequencies --  1583.3169              1775.8513              1790.0886
 Red. masses --     1.6325                10.7651                 9.1109
 Frc consts  --     2.4112                20.0023                17.2014
 IR Inten    --   145.1315               181.6375               291.1900

                    52                     53                     54
                     A                      A                      A
 Frequencies --  3019.1262              3049.7733              3060.8283
 Red. masses --     1.0854                 1.0367                 1.0373
 Frc consts  --     5.8289                 5.6811                 5.7260
 IR Inten    --    57.8648                60.8378                 7.6275

                    55                     56                     57
                     A                      A                      A
 Frequencies --  3070.6252              3102.9183              3106.6386
 Red. masses --     1.0566                 1.1061                 1.0612
 Frc consts  --     5.8699                 6.2745                 6.0342
 IR Inten    --    40.1254                28.8406                26.5031

                    58                     59                     60
                     A                      A                      A
 Frequencies --  3115.4763              3126.9369              3163.9438
 Red. masses --     1.1096                 1.1010                 1.1102
 Frc consts  --     6.3457                 6.3430                 6.5478
 IR Inten    --    19.2428                11.5342                16.9139

                    61                     62                     63
                     A                      A                      A
 Frequencies --  3165.8393              3177.5545              3623.1766
 Red. masses --     1.1014                 1.0985                 1.0771
 Frc consts  --     6.5039                 6.5350                 8.3311
 IR Inten    --    10.4081                 0.7264                18.8544

 - Thermochemistry -
 -------------------
 Temperature   298.150 Kelvin.  Pressure   1.00000 Atm.
 Atom     1 has atomic number  6 and mass  12.00000

 Molecular mass:   156.08988 amu.
 Principal axes and moments of inertia in atomic units:
                           1         2         3
     Eigenvalues --  1001.990552306.570132880.45282
           X            0.99980  -0.01977  -0.00057
           Y            0.01978   0.99963   0.01864
           Z            0.00021  -0.01865   0.99983
 This molecule is an asymmetric top.
 Rotational symmetry number  1.
 Warning -- assumption of classical behavior for rotation
           may cause significant error
 Rotational temperatures (Kelvin)      0.08644     0.03755     0.03007
 Rotational constants (GHZ):           1.80116     0.78244     0.62655
 Zero-point vibrational energy     507400.0 (Joules/Mol)
                                  121.27151 (Kcal/Mol)
 Warning -- explicit consideration of  16 degrees of freedom as
           vibrations may cause significant error
 Vibrational temperatures:     39.35    81.49   105.88   116.68   171.38
          (Kelvin)            193.07   221.39   255.19   340.18   375.72
                              468.83   534.57   577.37   678.26   823.27
                              854.04   930.46   998.03  1089.44  1156.01
                             1245.40  1315.57  1371.20  1399.30  1431.27
                             1532.61  1544.52  1563.46  1622.88  1669.91
                             1679.47  1697.14  1744.24  1756.03  1779.61
                             1823.64  1850.96  1919.73  1999.06  2019.68
                             2070.74  2102.00  2166.78  2174.45  2179.46
                             2186.48  2200.93  2225.51  2278.04  2555.05
                             2575.54  4343.84  4387.94  4403.84  4417.94
                             4464.40  4469.75  4482.47  4498.96  4552.20
                             4554.93  4571.79  5212.94

 Zero-point correction=                           0.193258 (Hartree/Particle)
 Thermal correction to Energy=                    0.205512
 Thermal correction to Enthalpy=                  0.206457
 Thermal correction to Gibbs Free Energy=         0.153344
 Sum of electronic and zero-point Energies=           -533.724699
 Sum of electronic and thermal Energies=              -533.712445
 Sum of electronic and thermal Enthalpies=            -533.711500
 Sum of electronic and thermal Free Energies=         -533.764613

                     E (Thermal)             CV                S
                      KCal/Mol        Cal/Mol-Kelvin    Cal/Mol-Kelvin
 Total                  128.961             42.253            111.785
 Electronic               0.000              0.000              0.000
 Translational            0.889              2.981             41.045
 Rotational               0.889              2.981             30.277
 Vibrational            127.184             36.291             40.463
 Vibration     1          0.593              1.984              6.013
 Vibration     2          0.596              1.975              4.571
 Vibration     3          0.599              1.966              4.055
 Vibration     4          0.600              1.962              3.864
 Vibration     5          0.609              1.933              3.115
 Vibration     6          0.613              1.919              2.885
 Vibration     7          0.619              1.898              2.624
 Vibration     8          0.628              1.870              2.356
 Vibration     9          0.655              1.785              1.830
 Vibration    10          0.669              1.744              1.654
 Vibration    11          0.710              1.624              1.281
 Vibration    12          0.743              1.531              1.073
 Vibration    13          0.767              1.467              0.958
 Vibration    14          0.828              1.313              0.734
 Vibration    15          0.928              1.091              0.500
 Vibration    16          0.951              1.045              0.461

 Optimization completed.
    -- Stationary point found.
 Normal termination of Gaussian 09 at Fri Feb 16 22:10:51 2018.
