 Gaussian 09, Revision C.01,
 Gaussian 09:  AM64L-G09RevC.01 23-Sep-2011

 ----------------------------------------------------------------------
 #HF/6-31G* Geom=AllCheck Guess=Read Pop=(MK,ReadRadii) Integral=(Grid=
 UltraFine) iop(6/33=2)
 ----------------------------------------------------------------------

 Structure from the checkpoint file:  frag38-conf2.chk
 -----------------------------
 Optimization for frag38-conf2
 -----------------------------
 Charge =  0 Multiplicity = 1

                         Standard orientation:
 ---------------------------------------------------------------------
 Center     Atomic      Atomic             Coordinates (Angstroms)
 Number     Number       Type             X           Y           Z
 ---------------------------------------------------------------------
      1          6           0        1.199594    0.055836    0.153369
      2          6           0       -1.870639   -0.843228   -0.079454
      3          6           0       -0.232165    2.186346   -0.165571
      4          6           0       -1.620146    1.644142    0.272614
      5          6           0        0.106690    0.743672   -0.674383
      6          6           0       -1.145433   -2.082991   -0.572871
      7          6           0        3.588980   -0.585396    0.164705
      8          7           0       -1.263446    0.358968   -0.332988
      9          7           0        2.403500   -0.047255   -0.480606
     10          8           0        0.999433   -0.320430    1.301421
     11          8           0       -2.945774   -0.884237    0.504092
     12          1           0       -0.261675    2.935162   -0.959838
     13          1           0        0.404623    2.536975    0.648386
     14          1           0       -1.772404    1.573384    1.354415
     15          1           0       -2.493338    2.122511   -0.183189
     16          1           0        0.326609    0.677531   -1.749707
     17          1           0       -0.447600   -2.419759    0.201633
     18          1           0       -0.576094   -1.905193   -1.491878
     19          1           0       -1.882136   -2.869678   -0.746312
     20          1           0        3.303527   -0.876512    1.176408
     21          1           0        4.387118    0.164387    0.217005
     22          1           0        3.964046   -1.465608   -0.370115
     23          1           0        2.476397    0.271867   -1.436220
 ---------------------------------------------------------------------

 SCF Done:  E(RHF) =  -530.683762892     A.U. after   14 cycles

 The electronic state is 1-A.
 Alpha  occ. eigenvalues --  -20.53638 -20.51298 -15.60725 -15.58166 -11.36505
 Alpha  occ. eigenvalues --  -11.34312 -11.29928 -11.27226 -11.26662 -11.25339
 Alpha  occ. eigenvalues --  -11.22816  -1.38960  -1.36440  -1.26404  -1.24098
 Alpha  occ. eigenvalues --   -1.05123  -1.00367  -0.97019  -0.93231  -0.83359
 Alpha  occ. eigenvalues --   -0.80741  -0.76070  -0.71351  -0.67061  -0.65077
 Alpha  occ. eigenvalues --   -0.64244  -0.63646  -0.62155  -0.59660  -0.58256
 Alpha  occ. eigenvalues --   -0.56418  -0.56057  -0.55719  -0.54166  -0.52588
 Alpha  occ. eigenvalues --   -0.51373  -0.48804  -0.48287  -0.43244  -0.40446
 Alpha  occ. eigenvalues --   -0.40072  -0.36828
 Alpha virt. eigenvalues --    0.16911   0.19110   0.20599   0.24181   0.25185
 Alpha virt. eigenvalues --    0.26015   0.27191   0.29199   0.30480   0.30715
 Alpha virt. eigenvalues --    0.31313   0.31423   0.33055   0.34053   0.35137

 Mulliken atomic charges:
              1
     1  C    0.784260
     2  C    0.771531
     3  C   -0.391810
     4  C   -0.057336
     5  C   -0.032702
     6  C   -0.601830
     7  C   -0.289727
     8  N   -0.674612
     9  N   -0.804481
    10  O   -0.629677
    11  O   -0.614790
    12  H    0.190404
    13  H    0.205576
    14  H    0.204211
    15  H    0.183677
    16  H    0.186760
    17  H    0.224414
    18  H    0.166537
    19  H    0.211467
    20  H    0.234667
    21  H    0.172989
    22  H    0.173651
    23  H    0.386822
 Sum of Mulliken atomic charges =   0.00000

 Dipole moment (field-independent basis, Debye):
    X=              5.4277    Y=              2.1742    Z=             -4.3656  Tot=              7.2970
 Quadrupole moment (field-independent basis, Debye-Ang):
   XX=            -71.2848   YY=            -60.3418   ZZ=            -67.1655
   XY=             -4.5091   XZ=             -0.7052   YZ=              2.0544

 Normal termination of Gaussian 09 at Sat Feb 17 21:03:05 2018.
