 Gaussian 09, Revision C.01,
 Gaussian 09:  AM64L-G09RevC.01 23-Sep-2011

 ----------------------------------------------------------------------
 #HF/6-31G* Geom=AllCheck Guess=Read Pop=(MK,ReadRadii) Integral=(Grid=
 UltraFine) iop(6/33=2)
 ----------------------------------------------------------------------

 Structure from the checkpoint file:  frag57-conf0.chk
 -----------------------------
 Optimization for frag57-conf0
 -----------------------------
 Charge =  0 Multiplicity = 1

                         Standard orientation:
 ---------------------------------------------------------------------
 Center     Atomic      Atomic             Coordinates (Angstroms)
 Number     Number       Type             X           Y           Z
 ---------------------------------------------------------------------
      1          6           0       -2.704366    1.313167    0.456681
      2          6           0       -1.441201    1.747471    0.041516
      3          6           0       -3.027841   -0.039603    0.452527
      4          6           0       -0.811169   -0.545471   -0.394083
      5          6           0       -0.488482    0.818422   -0.384803
      6          6           0       -2.073330   -0.971123    0.023294
      7          6           0        2.667280   -0.248314    0.020767
      8          6           0        3.675588   -0.496227    1.133304
      9          6           0        0.894726    1.262395   -0.824909
     10          7           0        1.956287    0.915607    0.119791
     11          8           0        2.519803   -1.040758   -0.904849
     12          8           0       -2.436201   -2.289873    0.030193
     13          1           0       -3.444226    2.038234    0.785639
     14          1           0       -1.201266    2.808079    0.044913
     15          1           0       -4.003906   -0.393088    0.769458
     16          1           0       -0.066824   -1.265524   -0.729236
     17          1           0        3.380477   -1.394340    1.685776
     18          1           0        4.651290   -0.697457    0.681784
     19          1           0        3.772963    0.336782    1.836569
     20          1           0        1.167304    0.785557   -1.769764
     21          1           0        0.912088    2.347331   -0.973823
     22          1           0        2.013794    1.445123    0.978346
     23          1           0       -1.691741   -2.819203   -0.296710
 ---------------------------------------------------------------------

 SCF Done:  E(RHF) =  -551.406569805     A.U. after   14 cycles

 The electronic state is 1-A.
 Alpha  occ. eigenvalues --  -20.59147 -20.52495 -15.59450 -11.35888 -11.30172
 Alpha  occ. eigenvalues --  -11.27386 -11.24736 -11.24271 -11.24143 -11.22895
 Alpha  occ. eigenvalues --  -11.22783 -11.22721  -1.39679  -1.37617  -1.23218
 Alpha  occ. eigenvalues --   -1.14437  -1.04484  -1.00479  -1.00003  -0.92743
 Alpha  occ. eigenvalues --   -0.83775  -0.80801  -0.78531  -0.72282  -0.69767
 Alpha  occ. eigenvalues --   -0.67615  -0.65243  -0.64147  -0.62285  -0.59848
 Alpha  occ. eigenvalues --   -0.58667  -0.58194  -0.57982  -0.56894  -0.55900
 Alpha  occ. eigenvalues --   -0.53773  -0.51933  -0.50218  -0.49052  -0.47263
 Alpha  occ. eigenvalues --   -0.42237  -0.39239  -0.33201  -0.30920
 Alpha virt. eigenvalues --    0.13322   0.15924   0.19207   0.21366   0.22686
 Alpha virt. eigenvalues --    0.24659   0.26427   0.28443   0.30104   0.31133
 Alpha virt. eigenvalues --    0.32139   0.33249   0.33568   0.34635   0.36050

 Mulliken atomic charges:
              1
     1  C   -0.180395
     2  C   -0.257363
     3  C   -0.248824
     4  C   -0.325224
     5  C    0.044124
     6  C    0.422523
     7  C    0.764896
     8  C   -0.575687
     9  C   -0.167361
    10  N   -0.788812
    11  O   -0.636458
    12  O   -0.764681
    13  H    0.205099
    14  H    0.192623
    15  H    0.218482
    16  H    0.242987
    17  H    0.206358
    18  H    0.211647
    19  H    0.169347
    20  H    0.233846
    21  H    0.188617
    22  H    0.384498
    23  H    0.459757
 Sum of Mulliken atomic charges =   0.00000

 Dipole moment (field-independent basis, Debye):
    X=              1.3558    Y=              2.5415    Z=              2.3100  Tot=              3.6924
 Quadrupole moment (field-independent basis, Debye-Ang):
   XX=            -71.2763   YY=            -65.7655   ZZ=            -72.4610
   XY=              0.8508   XZ=              6.9306   YZ=              0.2803

 Normal termination of Gaussian 09 at Sat Feb 17 21:07:56 2018.
