 Gaussian 09, Revision C.01,
 Gaussian 09:  AM64L-G09RevC.01 23-Sep-2011

 ---------------------------------------------------------
 #B3LYP/6-31G* Integral=(Grid=UltraFine) freq Opt pop=none
 ---------------------------------------------------------

 99/9=1/99;
 -----------------------------
 Optimization for frag57-conf0
 -----------------------------
 Charge =  0 Multiplicity = 1

 SCF Done:  E(RB3LYP) =  -554.789044269     A.U. after   15 cycles
 SCF Done:  E(RB3LYP) =  -554.790565396     A.U. after   12 cycles
 SCF Done:  E(RB3LYP) =  -554.790672967     A.U. after   11 cycles
 SCF Done:  E(RB3LYP) =  -554.790675112     A.U. after   11 cycles
 SCF Done:  E(RB3LYP) =  -554.790712733     A.U. after   10 cycles
 SCF Done:  E(RB3LYP) =  -554.790751964     A.U. after   11 cycles
 SCF Done:  E(RB3LYP) =  -554.790866208     A.U. after   13 cycles
 SCF Done:  E(RB3LYP) =  -554.790932031     A.U. after   11 cycles
 SCF Done:  E(RB3LYP) =  -554.791011869     A.U. after   12 cycles
 SCF Done:  E(RB3LYP) =  -554.791056141     A.U. after   12 cycles
 SCF Done:  E(RB3LYP) =  -554.793482924     A.U. after   12 cycles
 SCF Done:  E(RB3LYP) =  -554.793482515     A.U. after   12 cycles
 SCF Done:  E(RB3LYP) =  -554.793509153     A.U. after   12 cycles
 SCF Done:  E(RB3LYP) =  -554.793511655     A.U. after    9 cycles
 SCF Done:  E(RB3LYP) =  -554.793512548     A.U. after    8 cycles
 SCF Done:  E(RB3LYP) =  -554.793512992     A.U. after    8 cycles
 SCF Done:  E(RB3LYP) =  -554.793513339     A.U. after    9 cycles
 SCF Done:  E(RB3LYP) =  -554.793513411     A.U. after    7 cycles
 SCF Done:  E(RB3LYP) =  -554.793513418     A.U. after    6 cycles
 Optimization completed.
    -- Stationary point found.
 Normal termination of Gaussian 09 at Fri Feb 16 22:46:29 2018.

 --------------------------------------------------------------------
 #N Geom=AllCheck Guess=TCheck SCRF=Check GenChk RB3LYP/6-31G(d) Freq
 --------------------------------------------------------------------

 Structure from the checkpoint file:  frag57-conf0.chk
 -----------------------------
 Optimization for frag57-conf0
 -----------------------------
 Charge =  0 Multiplicity = 1

                         Standard orientation:
 ---------------------------------------------------------------------
 Center     Atomic      Atomic             Coordinates (Angstroms)
 Number     Number       Type             X           Y           Z
 ---------------------------------------------------------------------
      1          6           0       -2.704366    1.313167    0.456681
      2          6           0       -1.441201    1.747471    0.041516
      3          6           0       -3.027841   -0.039603    0.452527
      4          6           0       -0.811169   -0.545471   -0.394083
      5          6           0       -0.488482    0.818422   -0.384803
      6          6           0       -2.073330   -0.971123    0.023294
      7          6           0        2.667280   -0.248314    0.020767
      8          6           0        3.675588   -0.496227    1.133304
      9          6           0        0.894726    1.262395   -0.824909
     10          7           0        1.956287    0.915607    0.119791
     11          8           0        2.519803   -1.040758   -0.904849
     12          8           0       -2.436201   -2.289873    0.030193
     13          1           0       -3.444226    2.038234    0.785639
     14          1           0       -1.201266    2.808079    0.044913
     15          1           0       -4.003906   -0.393088    0.769458
     16          1           0       -0.066824   -1.265524   -0.729236
     17          1           0        3.380477   -1.394340    1.685776
     18          1           0        4.651290   -0.697457    0.681784
     19          1           0        3.772963    0.336782    1.836569
     20          1           0        1.167304    0.785557   -1.769764
     21          1           0        0.912088    2.347331   -0.973823
     22          1           0        2.013794    1.445123    0.978346
     23          1           0       -1.691741   -2.819203   -0.296710
 ---------------------------------------------------------------------

 SCF Done:  E(RB3LYP) =  -554.793513418     A.U. after    1 cycles

 Isotropic polarizability for W=    0.000000      101.71 Bohr**3.
 End of Minotr Frequency-dependent properties file   721 does not exist.

                     1                      2                      3
                     A                      A                      A
 Frequencies --    33.9995                46.1882                62.5541
 Red. masses --     3.3091                 1.6618                 5.8078
 Frc consts  --     0.0023                 0.0021                 0.0134
 IR Inten    --     2.1166                 1.8653                14.5248

                     4                      5                      6
                     A                      A                      A
 Frequencies --    67.9619               171.4012               209.1974
 Red. masses --     1.8826                 4.9536                 5.9081
 Frc consts  --     0.0051                 0.0857                 0.1523
 IR Inten    --     0.9264                 1.8149                 5.9114

                     7                      8                      9
                     A                      A                      A
 Frequencies --   237.2276               301.4151               325.9549
 Red. masses --     4.3513                 3.8122                 2.3556
 Frc consts  --     0.1443                 0.2041                 0.1475
 IR Inten    --     0.2940                 0.6939                 1.0732

                    10                     11                     12
                     A                      A                      A
 Frequencies --   390.2628               426.3255               450.0168
 Red. masses --     1.0985                 3.5762                 2.5884
 Frc consts  --     0.0986                 0.3830                 0.3088
 IR Inten    --   118.3076                 5.6561                 6.6159

                    13                     14                     15
                     A                      A                      A
 Frequencies --   455.6066               483.4423               534.9457
 Red. masses --     1.3470                 3.0778                 5.9913
 Frc consts  --     0.1647                 0.4238                 1.0102
 IR Inten    --   102.9926                21.1897                 1.1548

                    16                     17                     18
                     A                      A                      A
 Frequencies --   549.4888               611.4404               625.2446
 Red. masses --     5.2359                 4.1514                 2.6358
 Frc consts  --     0.9314                 0.9144                 0.6071
 IR Inten    --     8.2954                 6.4782                 3.7027

                    19                     20                     21
                     A                      A                      A
 Frequencies --   667.1260               716.1428               764.1455
 Red. masses --     3.7199                 2.6996                 3.4262
 Frc consts  --     0.9754                 0.8157                 1.1787
 IR Inten    --     1.1242                10.8526                28.2575

                    22                     23                     24
                     A                      A                      A
 Frequencies --   804.4325               855.2697               889.9772
 Red. masses --     1.6642                 2.6474                 1.4045
 Frc consts  --     0.6345                 1.1410                 0.6554
 IR Inten    --    22.5175                 2.2577                 0.7245

                    25                     26                     27
                     A                      A                      A
 Frequencies --   893.8557               967.3041               967.9761
 Red. masses --     1.4407                 1.5405                 2.1872
 Frc consts  --     0.6782                 0.8493                 1.2075
 IR Inten    --    22.2743                 1.0383                 1.4505

                    28                     29                     30
                     A                      A                      A
 Frequencies --  1002.3881              1014.5936              1039.3636
 Red. masses --     1.7218                 6.1497                 2.5432
 Frc consts  --     1.0193                 3.7298                 1.6187
 IR Inten    --     3.9311                 2.6571                 1.1048

                    31                     32                     33
                     A                      A                      A
 Frequencies --  1068.1887              1098.6671              1113.9042
 Red. masses --     1.7035                 2.9744                 1.6310
 Frc consts  --     1.1452                 2.1154                 1.1923
 IR Inten    --     7.9677                11.8558                 8.6800

                    34                     35                     36
                     A                      A                      A
 Frequencies --  1194.3532              1200.1541              1217.9887
 Red. masses --     1.1532                 1.9722                 1.2971
 Frc consts  --     0.9692                 1.6737                 1.1337
 IR Inten    --    18.5041                38.3731               118.2373

                    37                     38                     39
                     A                      A                      A
 Frequencies --  1269.5163              1295.3578              1327.8606
 Red. masses --     1.4633                 1.7006                 3.0464
 Frc consts  --     1.3895                 1.6812                 3.1648
 IR Inten    --    26.4045               165.5371                44.7042

                    40                     41                     42
                     A                      A                      A
 Frequencies --  1365.5827              1383.0448              1402.8913
 Red. masses --     1.6769                 2.2718                 1.3926
 Frc consts  --     1.8425                 2.5603                 1.6149
 IR Inten    --     0.9761                11.3582                22.6488

                    43                     44                     45
                     A                      A                      A
 Frequencies --  1426.0612              1499.2511              1501.5223
 Red. masses --     1.2615                 1.1367                 1.0770
 Frc consts  --     1.5115                 1.5054                 1.4307
 IR Inten    --    21.9627                24.7878                 5.7100

                    46                     47                     48
                     A                      A                      A
 Frequencies --  1506.5125              1515.3164              1552.7490
 Red. masses --     2.4767                 1.0683                 2.2342
 Frc consts  --     3.3119                 1.4452                 3.1738
 IR Inten    --    85.7514                16.0652                80.7924

                    49                     50                     51
                     A                      A                      A
 Frequencies --  1559.8062              1660.8070              1665.4958
 Red. masses --     2.0577                 5.7828                 5.8521
 Frc consts  --     2.9496                 9.3979                 9.5641
 IR Inten    --   124.6921                55.8012                52.6460

                    52                     53                     54
                     A                      A                      A
 Frequencies --  1773.4112              3064.0142              3074.0026
 Red. masses --     8.8877                 1.0357                 1.0642
 Frc consts  --    16.4687                 5.7289                 5.9247
 IR Inten    --   195.7748                 8.4404                32.0496

                    55                     56                     57
                     A                      A                      A
 Frequencies --  3134.8754              3135.9746              3145.7742
 Red. masses --     1.1011                 1.1024                 1.1022
 Frc consts  --     6.3756                 6.3877                 6.4261
 IR Inten    --     0.2471                16.0573                11.0271

                    58                     59                     60
                     A                      A                      A
 Frequencies --  3178.2537              3179.1831              3196.0422
 Red. masses --     1.0870                 1.0910                 1.0921
 Frc consts  --     6.4693                 6.4972                 6.5725
 IR Inten    --     9.1004                 4.3228                22.6252

                    61                     62                     63
                     A                      A                      A
 Frequencies --  3217.5119              3621.8266              3745.7259
 Red. masses --     1.0942                 1.0776                 1.0659
 Frc consts  --     6.6739                 8.3285                 8.8112
 IR Inten    --    10.4379                15.5367                38.3895

 - Thermochemistry -
 -------------------
 Temperature   298.150 Kelvin.  Pressure   1.00000 Atm.
 Atom     1 has atomic number  6 and mass  12.00000

 Molecular mass:   165.07898 amu.
 Principal axes and moments of inertia in atomic units:
                           1         2         3
     Eigenvalues --  1098.854493348.276334025.72007
           X            0.99991  -0.00710   0.01167
           Y            0.00718   0.99995  -0.00668
           Z           -0.01163   0.00676   0.99991
 This molecule is an asymmetric top.
 Rotational symmetry number  1.
 Warning -- assumption of classical behavior for rotation
           may cause significant error
 Rotational temperatures (Kelvin)      0.07882     0.02587     0.02152
 Rotational constants (GHZ):           1.64238     0.53901     0.44830
 Zero-point vibrational energy     495594.2 (Joules/Mol)
                                  118.44985 (Kcal/Mol)
 Warning -- explicit consideration of  17 degrees of freedom as
           vibrations may cause significant error
 Vibrational temperatures:     48.92    66.45    90.00    97.78   246.61
          (Kelvin)            300.99   341.32   433.67   468.98   561.50
                              613.39   647.47   655.52   695.56   769.67
                              790.59   879.73   899.59   959.84  1030.37
                             1099.43  1157.40  1230.54  1280.48  1286.06
                             1391.73  1392.70  1442.21  1459.77  1495.41
                             1536.88  1580.74  1602.66  1718.41  1726.75
                             1752.41  1826.55  1863.73  1910.49  1964.77
                             1989.89  2018.45  2051.78  2157.09  2160.35
                             2167.53  2180.20  2234.06  2244.21  2389.53
                             2396.27  2551.54  4408.43  4422.80  4510.38
                             4511.96  4526.06  4572.79  4574.13  4598.39
                             4629.28  5210.99  5389.26

 Zero-point correction=                           0.188762 (Hartree/Particle)
 Thermal correction to Energy=                    0.200416
 Thermal correction to Enthalpy=                  0.201361
 Thermal correction to Gibbs Free Energy=         0.149537
 Sum of electronic and zero-point Energies=           -554.604752
 Sum of electronic and thermal Energies=              -554.593097
 Sum of electronic and thermal Enthalpies=            -554.592153
 Sum of electronic and thermal Free Energies=         -554.643977

                     E (Thermal)             CV                S
                      KCal/Mol        Cal/Mol-Kelvin    Cal/Mol-Kelvin
 Total                  125.763             43.257            109.073
 Electronic               0.000              0.000              0.000
 Translational            0.889              2.981             41.212
 Rotational               0.889              2.981             31.072
 Vibrational            123.986             37.295             36.789
 Vibration     1          0.594              1.983              5.581
 Vibration     2          0.595              1.979              4.974
 Vibration     3          0.597              1.972              4.375
 Vibration     4          0.598              1.969              4.212
 Vibration     5          0.626              1.878              2.420
 Vibration     6          0.642              1.827              2.051
 Vibration     7          0.656              1.784              1.824
 Vibration     8          0.693              1.671              1.409
 Vibration     9          0.710              1.624              1.280
 Vibration    10          0.758              1.491              0.999
 Vibration    11          0.788              1.413              0.871
 Vibration    12          0.809              1.361              0.796
 Vibration    13          0.814              1.348              0.779
 Vibration    14          0.840              1.287              0.701
 Vibration    15          0.890              1.173              0.576
 Vibration    16          0.905              1.141              0.545
 Vibration    17          0.971              1.008              0.430

 Optimization completed.
    -- Stationary point found.
 Normal termination of Gaussian 09 at Fri Feb 16 23:02:41 2018.
