 Gaussian 09, Revision C.01,
 Gaussian 09:  AM64L-G09RevC.01 23-Sep-2011

 ---------------------------------------------------------
 #B3LYP/6-31G* Integral=(Grid=UltraFine) freq Opt pop=none
 ---------------------------------------------------------

 99/9=1/99;
 -----------------------------
 Optimization for frag16-conf2
 -----------------------------
 Charge =  0 Multiplicity = 1

 SCF Done:  E(RB3LYP) =  -769.827553818     A.U. after   15 cycles
 SCF Done:  E(RB3LYP) =  -769.832480415     A.U. after   12 cycles
 SCF Done:  E(RB3LYP) =  -769.832871739     A.U. after   13 cycles
 SCF Done:  E(RB3LYP) =  -769.833662796     A.U. after   12 cycles
 SCF Done:  E(RB3LYP) =  -769.834089556     A.U. after   12 cycles
 SCF Done:  E(RB3LYP) =  -769.834208349     A.U. after   11 cycles
 SCF Done:  E(RB3LYP) =  -769.834296169     A.U. after   12 cycles
 SCF Done:  E(RB3LYP) =  -769.834351963     A.U. after   11 cycles
 SCF Done:  E(RB3LYP) =  -769.834382055     A.U. after   11 cycles
 SCF Done:  E(RB3LYP) =  -769.834409575     A.U. after   10 cycles
 SCF Done:  E(RB3LYP) =  -769.834458568     A.U. after   10 cycles
 SCF Done:  E(RB3LYP) =  -769.834478286     A.U. after   10 cycles
 SCF Done:  E(RB3LYP) =  -769.834499001     A.U. after   10 cycles
 SCF Done:  E(RB3LYP) =  -769.834510990     A.U. after   11 cycles
 SCF Done:  E(RB3LYP) =  -769.834513952     A.U. after    9 cycles
 SCF Done:  E(RB3LYP) =  -769.834517020     A.U. after    9 cycles
 SCF Done:  E(RB3LYP) =  -769.834519644     A.U. after    9 cycles
 SCF Done:  E(RB3LYP) =  -769.834520425     A.U. after    8 cycles
 SCF Done:  E(RB3LYP) =  -769.834520464     A.U. after    7 cycles
 Optimization completed.
    -- Stationary point found.
 Normal termination of Gaussian 09 at Fri Feb 16 19:50:36 2018.

 --------------------------------------------------------------------
 #N Geom=AllCheck Guess=TCheck SCRF=Check GenChk RB3LYP/6-31G(d) Freq
 --------------------------------------------------------------------

 Structure from the checkpoint file:  frag16-conf2.chk
 -----------------------------
 Optimization for frag16-conf2
 -----------------------------
 Charge =  0 Multiplicity = 1

                         Standard orientation:
 ---------------------------------------------------------------------
 Center     Atomic      Atomic             Coordinates (Angstroms)
 Number     Number       Type             X           Y           Z
 ---------------------------------------------------------------------
      1          6           0       -1.010526    2.298538   -0.184658
      2          6           0       -2.115869   -0.897719   -0.476494
      3          6           0        4.570496   -0.419450    0.707186
      4          6           0        3.495252    0.518816    1.273100
      5          6           0        4.284972   -0.764491   -0.761520
      6          6           0        2.080202   -0.055013    1.092577
      7          6           0        2.873533   -1.344595   -0.936685
      8          6           0        1.780552   -0.411518   -0.377619
      9          6           0       -1.127123    3.528911   -1.070373
     10          6           0       -4.235084   -1.861454    0.219331
     11          6           0       -2.947019   -0.541824    1.871337
     12          6           0        0.392639   -1.043949   -0.579087
     13          6           0       -0.798062   -0.169062   -0.144924
     14          7           0       -0.813204    1.116101   -0.840673
     15          7           0       -3.040204   -1.079075    0.514900
     16          8           0       -1.072892    2.378608    1.040771
     17          8           0       -2.293434   -1.285183   -1.632755
     18          1           0        5.564536    0.035438    0.806387
     19          1           0        4.590510   -1.346959    1.298940
     20          1           0        3.683925    0.719875    2.335408
     21          1           0        3.556942    1.489409    0.758729
     22          1           0        4.380749    0.145985   -1.371819
     23          1           0        5.032646   -1.473037   -1.140786
     24          1           0        1.976269   -0.963596    1.707303
     25          1           0        1.345530    0.667033    1.468965
     26          1           0        2.678010   -1.552005   -1.997472
     27          1           0        2.815294   -2.313525   -0.416598
     28          1           0        1.812599    0.523584   -0.957981
     29          1           0       -2.113103    3.980541   -0.920792
     30          1           0       -0.381280    4.262651   -0.750654
     31          1           0       -0.988705    3.319466   -2.135397
     32          1           0       -4.325457   -2.696581    0.925610
     33          1           0       -4.154517   -2.245332   -0.796499
     34          1           0       -5.135571   -1.239142    0.302482
     35          1           0       -3.960833   -0.328524    2.225494
     36          1           0       -2.388613    0.395179    1.895690
     37          1           0       -2.491901   -1.260197    2.567692
     38          1           0        0.251670   -1.313685   -1.632804
     39          1           0        0.336167   -1.986356   -0.014505
     40          1           0       -0.710318    0.071584    0.910619
     41          1           0       -0.933869    1.078473   -1.844759
 ---------------------------------------------------------------------

 SCF Done:  E(RB3LYP) =  -769.834520464     A.U. after    1 cycles

 Isotropic polarizability for W=    0.000000      153.63 Bohr**3.
 End of Minotr Frequency-dependent properties file   721 does not exist.

                     1                      2                      3
                     A                      A                      A
 Frequencies --    24.8559                31.7957                35.6881
 Red. masses --     3.8439                 3.1573                 2.6170
 Frc consts  --     0.0014                 0.0019                 0.0020
 IR Inten    --     3.1714                 1.3354                 0.5566

                     4                      5                      6
                     A                      A                      A
 Frequencies --    54.7772                57.0556                63.8853
 Red. masses --     1.8504                 2.6017                 2.5000
 Frc consts  --     0.0033                 0.0050                 0.0060
 IR Inten    --     6.2583                 1.8788                 0.5596

                     7                      8                      9
                     A                      A                      A
 Frequencies --    73.9050               102.1532               125.3746
 Red. masses --     2.9232                 2.5800                 1.8922
 Frc consts  --     0.0094                 0.0159                 0.0175
 IR Inten    --    12.3322                 0.2339                 0.7763

                    10                     11                     12
                     A                      A                      A
 Frequencies --   146.1674               165.2010               179.8904
 Red. masses --     1.1843                 2.5146                 4.3309
 Frc consts  --     0.0149                 0.0404                 0.0826
 IR Inten    --     0.9177                 0.3658                 4.5574

                    13                     14                     15
                     A                      A                      A
 Frequencies --   204.0562               230.1002               236.6147
 Red. masses --     2.9682                 2.0946                 2.4855
 Frc consts  --     0.0728                 0.0653                 0.0820
 IR Inten    --     2.8439                 0.8008                 3.9700

                    16                     17                     18
                     A                      A                      A
 Frequencies --   263.5213               278.3093               311.1800
 Red. masses --     2.6942                 3.2758                 3.5604
 Frc consts  --     0.1102                 0.1495                 0.2031
 IR Inten    --     4.3748                 0.2427                 3.0858

                    19                     20                     21
                     A                      A                      A
 Frequencies --   330.4793               385.0456               416.4701
 Red. masses --     1.7265                 3.7349                 2.5061
 Frc consts  --     0.1111                 0.3262                 0.2561
 IR Inten    --     0.1152                17.8119                 5.3420

                    22                     23                     24
                     A                      A                      A
 Frequencies --   435.2723               444.8964               449.7546
 Red. masses --     2.7610                 2.8297                 2.2161
 Frc consts  --     0.3082                 0.3300                 0.2641
 IR Inten    --     1.9306                 0.4037                 9.9076

                    25                     26                     27
                     A                      A                      A
 Frequencies --   464.6813               516.7038               550.6868
 Red. masses --     2.9738                 1.5193                 1.8626
 Frc consts  --     0.3783                 0.2390                 0.3328
 IR Inten    --     6.2434                89.6189                 1.6428

                    28                     29                     30
                     A                      A                      A
 Frequencies --   564.9056               605.7792               638.8103
 Red. masses --     2.8524                 4.1459                 2.1970
 Frc consts  --     0.5363                 0.8964                 0.5282
 IR Inten    --    22.4828                 8.7231                 4.3610

                    31                     32                     33
                     A                      A                      A
 Frequencies --   646.9899               757.3318               784.9159
 Red. masses --     4.0816                 5.0006                 3.1330
 Frc consts  --     1.0066                 1.6898                 1.1372
 IR Inten    --    25.1502                 1.0402                 2.1341

                    34                     35                     36
                     A                      A                      A
 Frequencies --   802.1722               846.6808               852.6467
 Red. masses --     1.5138                 1.8117                 2.5785
 Frc consts  --     0.5739                 0.7652                 1.1045
 IR Inten    --     0.1765                 3.9979                 0.3200

                    37                     38                     39
                     A                      A                      A
 Frequencies --   861.5595               907.7125               920.8853
 Red. masses --     2.8994                 2.0125                 1.7849
 Frc consts  --     1.2680                 0.9770                 0.8918
 IR Inten    --     4.6031                 1.9182                 0.2405

                    40                     41                     42
                     A                      A                      A
 Frequencies --   936.0148               962.7170               982.4873
 Red. masses --     1.5145                 3.8954                 2.5391
 Frc consts  --     0.7818                 2.1272                 1.4440
 IR Inten    --     2.8704                 5.2296                 6.3267

                    43                     44                     45
                     A                      A                      A
 Frequencies --   993.0282              1010.2723              1038.5564
 Red. masses --     2.8631                 1.6684                 1.8479
 Frc consts  --     1.6635                 1.0033                 1.1743
 IR Inten    --     6.9170                 9.6060                 4.7897

                    46                     47                     48
                     A                      A                      A
 Frequencies --  1049.8773              1067.9253              1078.7397
 Red. masses --     1.8162                 1.6950                 1.4026
 Frc consts  --     1.1795                 1.1390                 0.9616
 IR Inten    --     0.1161                 5.9343                 1.7088

                    49                     50                     51
                     A                      A                      A
 Frequencies --  1093.8037              1102.1879              1109.2601
 Red. masses --     1.4543                 1.4509                 2.1118
 Frc consts  --     1.0251                 1.0385                 1.5310
 IR Inten    --     7.7100                 1.0438                 4.1115

                    52                     53                     54
                     A                      A                      A
 Frequencies --  1117.4240              1119.1177              1141.0746
 Red. masses --     2.5303                 2.8705                 1.2380
 Frc consts  --     1.8615                 2.1182                 0.9497
 IR Inten    --     5.7160                 5.5837                 1.4698

                    55                     56                     57
                     A                      A                      A
 Frequencies --  1161.0553              1182.1061              1190.8265
 Red. masses --     1.7690                 1.4073                 2.2277
 Frc consts  --     1.4050                 1.1586                 1.8612
 IR Inten    --    89.2959                 7.5597                14.1038

                    58                     59                     60
                     A                      A                      A
 Frequencies --  1212.1320              1242.1122              1275.9811
 Red. masses --     1.4549                 1.4544                 1.6206
 Frc consts  --     1.2595                 1.3221                 1.5546
 IR Inten    --     9.7759                 3.9191                42.2760

                    61                     62                     63
                     A                      A                      A
 Frequencies --  1286.4721              1292.8646              1303.1441
 Red. masses --     3.8975                 1.4103                 1.2590
 Frc consts  --     3.8004                 1.3889                 1.2597
 IR Inten    --    32.6019                25.1651                 6.7182

                    64                     65                     66
                     A                      A                      A
 Frequencies --  1315.1700              1319.2220              1351.3838
 Red. masses --     1.2782                 1.2619                 1.3917
 Frc consts  --     1.3026                 1.2940                 1.4974
 IR Inten    --     7.5039                 5.7150                16.0486

                    67                     68                     69
                     A                      A                      A
 Frequencies --  1360.0543              1372.7506              1385.2919
 Red. masses --     1.3896                 1.2318                 1.3858
 Frc consts  --     1.5145                 1.3676                 1.5668
 IR Inten    --    26.7308                 1.3675                 0.5572

                    70                     71                     72
                     A                      A                      A
 Frequencies --  1394.9316              1400.8243              1403.3204
 Red. masses --     1.3616                 1.4990                 1.5039
 Frc consts  --     1.5610                 1.7330                 1.7450
 IR Inten    --     3.6059                 3.0886                 3.2453

                    73                     74                     75
                     A                      A                      A
 Frequencies --  1406.6473              1423.2889              1426.4698
 Red. masses --     1.4996                 1.5403                 1.2626
 Frc consts  --     1.7482                 1.8384                 1.5137
 IR Inten    --     9.2592                 2.2053                24.2268

                    76                     77                     78
                     A                      A                      A
 Frequencies --  1446.0500              1460.6225              1500.6375
 Red. masses --     1.5163                 1.6048                 1.0517
 Frc consts  --     1.8681                 2.0172                 1.3954
 IR Inten    --    73.2529                84.3260                 4.5037

                    79                     80                     81
                     A                      A                      A
 Frequencies --  1504.5802              1508.6536              1513.3401
 Red. masses --     1.1757                 1.1018                 1.0893
 Frc consts  --     1.5681                 1.4775                 1.4699
 IR Inten    --    15.6087                19.9538                19.4027

                    82                     83                     84
                     A                      A                      A
 Frequencies --  1515.3984              1517.4615              1519.0591
 Red. masses --     1.0881                 1.0916                 1.0987
 Frc consts  --     1.4722                 1.4810                 1.4938
 IR Inten    --     4.4369                 1.0877                 6.4453

                    85                     86                     87
                     A                      A                      A
 Frequencies --  1522.7125              1526.2784              1536.1090
 Red. masses --     1.0875                 1.0572                 1.0611
 Frc consts  --     1.4856                 1.4511                 1.4751
 IR Inten    --    14.9511                10.5894                 6.5417

                    88                     89                     90
                     A                      A                      A
 Frequencies --  1537.1916              1546.3416              1551.4446
 Red. masses --     1.0979                 1.0720                 1.7825
 Frc consts  --     1.5285                 1.5103                 2.5279
 IR Inten    --     2.5550                42.2141               163.6696

                    91                     92                     93
                     A                      A                      A
 Frequencies --  1559.4842              1741.7851              1760.3563
 Red. masses --     1.2261                 8.9666                 8.9531
 Frc consts  --     1.7569                16.0275                16.3464
 IR Inten    --    29.6943               320.7022               153.9991

                    94                     95                     96
                     A                      A                      A
 Frequencies --  3002.1056              3006.8995              3015.3414
 Red. masses --     1.0739                 1.0707                 1.0714
 Frc consts  --     5.7024                 5.7038                 5.7395
 IR Inten    --     4.9970                11.4372                 9.0806

                    97                     98                     99
                     A                      A                      A
 Frequencies --  3018.4167              3020.8638              3025.3020
 Red. masses --     1.0701                 1.0639                 1.0614
 Frc consts  --     5.7442                 5.7204                 5.7234
 IR Inten    --    20.9565                12.1069                35.7052

                   100                    101                    102
                     A                      A                      A
 Frequencies --  3028.6899              3032.5212              3037.8411
 Red. masses --     1.0448                 1.0662                 1.0409
 Frc consts  --     5.6466                 5.7768                 5.6594
 IR Inten    --    38.8005                59.6663                80.7073

                   103                    104                    105
                     A                      A                      A
 Frequencies --  3059.5429              3065.6212              3067.2578
 Red. masses --     1.0968                 1.0353                 1.0953
 Frc consts  --     6.0492                 5.7328                 6.0716
 IR Inten    --    45.7634                 7.1705                69.8530

                   106                    107                    108
                     A                      A                      A
 Frequencies --  3068.5164              3073.7838              3080.1515
 Red. masses --     1.0960                 1.1022                 1.0956
 Frc consts  --     6.0803                 6.1356                 6.1242
 IR Inten    --    48.3814                69.6966                34.5330

                   109                    110                    111
                     A                      A                      A
 Frequencies --  3084.4801              3084.9552              3101.8183
 Red. masses --     1.1044                 1.0975                 1.0935
 Frc consts  --     6.1906                 6.1539                 6.1988
 IR Inten    --    26.8149                47.7763                23.8824

                   112                    113                    114
                     A                      A                      A
 Frequencies --  3138.7905              3145.1500              3159.3144
 Red. masses --     1.1021                 1.1034                 1.1013
 Frc consts  --     6.3970                 6.4308                 6.4766
 IR Inten    --     9.5043                12.4666                 0.6279

                   115                    116                    117
                     A                      A                      A
 Frequencies --  3192.8975              3193.0759              3607.6605
 Red. masses --     1.0849                 1.0958                 1.0772
 Frc consts  --     6.5163                 6.5826                 8.2605
 IR Inten    --     4.6845                 1.5216                24.8819

 - Thermochemistry -
 -------------------
 Temperature   298.150 Kelvin.  Pressure   1.00000 Atm.
 Atom     1 has atomic number  6 and mass  12.00000

 Molecular mass:   240.18378 amu.
 Principal axes and moments of inertia in atomic units:
                           1         2         3
     Eigenvalues --  2857.128636966.947008057.17207
           X            0.99998  -0.00047  -0.00663
           Y            0.00020   0.99917  -0.04077
           Z            0.00664   0.04077   0.99915
 This molecule is an asymmetric top.
 Rotational symmetry number  1.
 Warning -- assumption of classical behavior for rotation
           may cause significant error
 Rotational temperatures (Kelvin)      0.03031     0.01243     0.01075
 Rotational constants (GHZ):           0.63166     0.25904     0.22399
 Zero-point vibrational energy     965122.9 (Joules/Mol)
                                  230.66991 (Kcal/Mol)
 Warning -- explicit consideration of  29 degrees of freedom as
           vibrations may cause significant error
 Vibrational temperatures:     35.76    45.75    51.35    78.81    82.09
          (Kelvin)             91.92   106.33   146.98   180.39   210.30
                              237.69   258.82   293.59   331.06   340.44
                              379.15   400.42   447.72   475.49   553.99
                              599.21   626.26   640.11   647.10   668.57
                              743.42   792.31   812.77   871.58   919.10
                              930.87  1089.63  1129.32  1154.15  1218.18
                             1226.77  1239.59  1305.99  1324.95  1346.71
                             1385.13  1413.58  1428.74  1453.55  1494.25
                             1510.54  1536.50  1552.06  1573.74  1585.80
                             1595.98  1607.72  1610.16  1641.75  1670.50
                             1700.78  1713.33  1743.99  1787.12  1835.85
                             1850.94  1860.14  1874.93  1892.23  1898.06
                             1944.34  1956.81  1975.08  1993.12  2006.99
                             2015.47  2019.06  2023.85  2047.79  2052.37
                             2080.54  2101.51  2159.08  2164.75  2170.61
                             2177.36  2180.32  2183.29  2185.58  2190.84
                             2195.97  2210.12  2211.67  2224.84  2232.18
                             2243.75  2506.04  2532.76  4319.35  4326.25
                             4338.40  4342.82  4346.34  4352.73  4357.60
                             4363.12  4370.77  4401.99  4410.74  4413.09
                             4414.91  4422.48  4431.65  4437.87  4438.56
                             4462.82  4516.01  4525.16  4545.54  4593.86
                             4594.12  5190.61

 Zero-point correction=                           0.367596 (Hartree/Particle)
 Thermal correction to Energy=                    0.386860
 Thermal correction to Enthalpy=                  0.387804
 Thermal correction to Gibbs Free Energy=         0.317644
 Sum of electronic and zero-point Energies=           -769.466925
 Sum of electronic and thermal Energies=              -769.447660
 Sum of electronic and thermal Enthalpies=            -769.446716
 Sum of electronic and thermal Free Energies=         -769.516877

                     E (Thermal)             CV                S
                      KCal/Mol        Cal/Mol-Kelvin    Cal/Mol-Kelvin
 Total                  242.758             70.051            147.665
 Electronic               0.000              0.000              0.000
 Translational            0.889              2.981             42.330
 Rotational               0.889              2.981             33.439
 Vibrational            240.981             64.089             71.896
 Vibration     1          0.593              1.985              6.203
 Vibration     2          0.594              1.983              5.714
 Vibration     3          0.594              1.982              5.485
 Vibration     4          0.596              1.976              4.637
 Vibration     5          0.596              1.975              4.557
 Vibration     6          0.597              1.972              4.333
 Vibration     7          0.599              1.966              4.047
 Vibration     8          0.604              1.947              3.413
 Vibration     9          0.610              1.928              3.016
 Vibration    10          0.617              1.907              2.722
 Vibration    11          0.624              1.885              2.489
 Vibration    12          0.629              1.867              2.330
 Vibration    13          0.640              1.834              2.096
 Vibration    14          0.652              1.795              1.878
 Vibration    15          0.656              1.785              1.828
 Vibration    16          0.670              1.740              1.638
 Vibration    17          0.679              1.714              1.544
 Vibration    18          0.700              1.652              1.356
 Vibration    19          0.713              1.615              1.258
 Vibration    20          0.754              1.502              1.019
 Vibration    21          0.780              1.434              0.904
 Vibration    22          0.796              1.393              0.842
 Vibration    23          0.804              1.372              0.811
 Vibration    24          0.809              1.361              0.797
 Vibration    25          0.822              1.328              0.753
 Vibration    26          0.872              1.213              0.618
 Vibration    27          0.906              1.138              0.543
 Vibration    28          0.921              1.107              0.514
 Vibration    29          0.964              1.020              0.440

 Normal termination of Gaussian 09 at Fri Feb 16 21:07:17 2018.
