 Gaussian 09, Revision C.01,
 Gaussian 09:  AM64L-G09RevC.01 23-Sep-2011

 ----------------------------------------------------------------------
 #HF/6-31G* Geom=AllCheck Guess=Read Pop=(MK,ReadRadii) Integral=(Grid=
 UltraFine) iop(6/33=2)
 ----------------------------------------------------------------------

 Structure from the checkpoint file:  frag16-conf2.chk
 -----------------------------
 Optimization for frag16-conf2
 -----------------------------
 Charge =  0 Multiplicity = 1

                         Standard orientation:
 ---------------------------------------------------------------------
 Center     Atomic      Atomic             Coordinates (Angstroms)
 Number     Number       Type             X           Y           Z
 ---------------------------------------------------------------------
      1          6           0       -1.010526    2.298538   -0.184658
      2          6           0       -2.115869   -0.897719   -0.476494
      3          6           0        4.570496   -0.419450    0.707186
      4          6           0        3.495252    0.518816    1.273100
      5          6           0        4.284972   -0.764491   -0.761520
      6          6           0        2.080202   -0.055013    1.092577
      7          6           0        2.873533   -1.344595   -0.936685
      8          6           0        1.780552   -0.411518   -0.377619
      9          6           0       -1.127123    3.528911   -1.070373
     10          6           0       -4.235084   -1.861454    0.219331
     11          6           0       -2.947019   -0.541824    1.871337
     12          6           0        0.392639   -1.043949   -0.579087
     13          6           0       -0.798062   -0.169062   -0.144924
     14          7           0       -0.813204    1.116101   -0.840673
     15          7           0       -3.040204   -1.079075    0.514900
     16          8           0       -1.072892    2.378608    1.040771
     17          8           0       -2.293434   -1.285183   -1.632755
     18          1           0        5.564536    0.035438    0.806387
     19          1           0        4.590510   -1.346959    1.298940
     20          1           0        3.683925    0.719875    2.335408
     21          1           0        3.556942    1.489409    0.758729
     22          1           0        4.380749    0.145985   -1.371819
     23          1           0        5.032646   -1.473037   -1.140786
     24          1           0        1.976269   -0.963596    1.707303
     25          1           0        1.345530    0.667033    1.468965
     26          1           0        2.678010   -1.552005   -1.997472
     27          1           0        2.815294   -2.313525   -0.416598
     28          1           0        1.812599    0.523584   -0.957981
     29          1           0       -2.113103    3.980541   -0.920792
     30          1           0       -0.381280    4.262651   -0.750654
     31          1           0       -0.988705    3.319466   -2.135397
     32          1           0       -4.325457   -2.696581    0.925610
     33          1           0       -4.154517   -2.245332   -0.796499
     34          1           0       -5.135571   -1.239142    0.302482
     35          1           0       -3.960833   -0.328524    2.225494
     36          1           0       -2.388613    0.395179    1.895690
     37          1           0       -2.491901   -1.260197    2.567692
     38          1           0        0.251670   -1.313685   -1.632804
     39          1           0        0.336167   -1.986356   -0.014505
     40          1           0       -0.710318    0.071584    0.910619
     41          1           0       -0.933869    1.078473   -1.844759
 ---------------------------------------------------------------------

 SCF Done:  E(RHF) =  -764.922569703     A.U. after   13 cycles

 The electronic state is 1-A.
 Alpha  occ. eigenvalues --  -20.52815 -20.52001 -15.59562 -15.59451 -11.36203
 Alpha  occ. eigenvalues --  -11.35004 -11.27774 -11.26357 -11.25486 -11.24301
 Alpha  occ. eigenvalues --  -11.22561 -11.22435 -11.21686 -11.21630 -11.21557
 Alpha  occ. eigenvalues --  -11.21502 -11.21405  -1.38058  -1.37102  -1.23995
 Alpha  occ. eigenvalues --   -1.23457  -1.11814  -1.05833  -1.01315  -0.99762
 Alpha  occ. eigenvalues --   -0.98092  -0.96580  -0.93423  -0.87123  -0.82821
 Alpha  occ. eigenvalues --   -0.79848  -0.79291  -0.75070  -0.74219  -0.70571
 Alpha  occ. eigenvalues --   -0.66728  -0.66102  -0.64904  -0.63844  -0.63465
 Alpha  occ. eigenvalues --   -0.61871  -0.60663  -0.60028  -0.59229  -0.57978
 Alpha  occ. eigenvalues --   -0.57513  -0.56521  -0.56146  -0.55767  -0.54802
 Alpha  occ. eigenvalues --   -0.53258  -0.52388  -0.52065  -0.51829  -0.51110
 Alpha  occ. eigenvalues --   -0.49733  -0.48303  -0.47741  -0.46821  -0.44707
 Alpha  occ. eigenvalues --   -0.42748  -0.42345  -0.42228  -0.41966  -0.38220
 Alpha  occ. eigenvalues --   -0.36752
 Alpha virt. eigenvalues --    0.17691   0.20140   0.21949   0.22940   0.23466
 Alpha virt. eigenvalues --    0.24805   0.26141   0.27006   0.27786   0.28920
 Alpha virt. eigenvalues --    0.29613   0.30428   0.30540   0.31391   0.31472

 Mulliken atomic charges:
              1
     1  C    0.766801
     2  C    0.811350
     3  C   -0.308959
     4  C   -0.308739
     5  C   -0.310189
     6  C   -0.328027
     7  C   -0.305383
     8  C   -0.154792
     9  C   -0.575467
    10  C   -0.295006
    11  C   -0.317565
    12  C   -0.317910
    13  C   -0.075134
    14  N   -0.800316
    15  N   -0.672556
    16  O   -0.640889
    17  O   -0.660392
    18  H    0.160540
    19  H    0.149695
    20  H    0.163018
    21  H    0.151101
    22  H    0.149674
    23  H    0.161353
    24  H    0.143345
    25  H    0.188751
    26  H    0.160796
    27  H    0.148912
    28  H    0.159827
    29  H    0.208064
    30  H    0.211021
    31  H    0.174842
    32  H    0.164377
    33  H    0.235157
    34  H    0.165167
    35  H    0.180342
    36  H    0.237884
    37  H    0.168718
    38  H    0.196103
    39  H    0.164239
    40  H    0.248921
    41  H    0.401325
 Sum of Mulliken atomic charges =   0.00000

 Dipole moment (field-independent basis, Debye):
    X=             -0.1848    Y=              0.3425    Z=              0.0684  Tot=              0.3952
 Quadrupole moment (field-independent basis, Debye-Ang):
   XX=           -101.0518   YY=           -105.6441   ZZ=           -109.2805
   XY=             -0.2225   XZ=             -5.8245   YZ=            -13.9132

 Normal termination of Gaussian 09 at Sat Feb 17 20:59:30 2018.
