 Gaussian 09, Revision C.01,
 Gaussian 09:  AM64L-G09RevC.01 23-Sep-2011

 ---------------------------------------------------------
 #B3LYP/6-31G* Integral=(Grid=UltraFine) freq Opt pop=none
 ---------------------------------------------------------

 99/9=1/99;
 -----------------------------
 Optimization for frag32-conf0
 -----------------------------
 Charge =  0 Multiplicity = 1

 SCF Done:  E(RB3LYP) =  -495.608376670     A.U. after   14 cycles
 SCF Done:  E(RB3LYP) =  -495.610093320     A.U. after   13 cycles
 SCF Done:  E(RB3LYP) =  -495.610223674     A.U. after   11 cycles
 SCF Done:  E(RB3LYP) =  -495.610227709     A.U. after   11 cycles
 SCF Done:  E(RB3LYP) =  -495.610254321     A.U. after   11 cycles
 SCF Done:  E(RB3LYP) =  -495.610287972     A.U. after   12 cycles
 SCF Done:  E(RB3LYP) =  -495.610378307     A.U. after   16 cycles
 SCF Done:  E(RB3LYP) =  -495.610426658     A.U. after   12 cycles
 SCF Done:  E(RB3LYP) =  -495.610642441     A.U. after   15 cycles
 SCF Done:  E(RB3LYP) =  -495.610831095     A.U. after   12 cycles
 SCF Done:  E(RB3LYP) =  -495.612402689     A.U. after    8 cycles
 SCF Done:  E(RB3LYP) =  -495.612402718     A.U. after    8 cycles
 SCF Done:  E(RB3LYP) =  -495.612402738     A.U. after    8 cycles
 SCF Done:  E(RB3LYP) =  -495.612402749     A.U. after    8 cycles
 SCF Done:  E(RB3LYP) =  -495.612402751     A.U. after    8 cycles
 SCF Done:  E(RB3LYP) =  -495.612402751     A.U. after    8 cycles
 SCF Done:  E(RB3LYP) =  -495.612402752     A.U. after    9 cycles
 SCF Done:  E(RB3LYP) =  -495.612402732     A.U. after    9 cycles
 SCF Done:  E(RB3LYP) =  -495.612402721     A.U. after    7 cycles
 Optimization completed.
    -- Stationary point found.
 Normal termination of Gaussian 09 at Fri Feb 16 20:55:43 2018.

 --------------------------------------------------------------------
 #N Geom=AllCheck Guess=TCheck SCRF=Check GenChk RB3LYP/6-31G(d) Freq
 --------------------------------------------------------------------

 Structure from the checkpoint file:  frag32-conf0.chk
 -----------------------------
 Optimization for frag32-conf0
 -----------------------------
 Charge =  0 Multiplicity = 1

                         Standard orientation:
 ---------------------------------------------------------------------
 Center     Atomic      Atomic             Coordinates (Angstroms)
 Number     Number       Type             X           Y           Z
 ---------------------------------------------------------------------
      1          6           0        2.019847    1.204605    0.178046
      2          6           0        1.022995   -0.917306   -0.273488
      3          6           0        3.252437    0.552153    0.242962
      4          6           0        2.298428   -1.472323   -0.186527
      5          6           0        0.867471    0.461129   -0.088468
      6          6           0       -2.675418   -0.029867   -0.084003
      7          6           0       -3.674360   -0.718336    0.833935
      8          6           0       -0.489070    1.129404   -0.196656
      9          7           0        3.408153   -0.764815    0.068228
     10          7           0       -1.536797    0.429925    0.528248
     11          8           0       -2.883126    0.106810   -1.282507
     12          1           0        1.963274    2.279023    0.335365
     13          1           0        0.163471   -1.547558   -0.482493
     14          1           0        4.159381    1.117923    0.451539
     15          1           0        2.438575   -2.542716   -0.329702
     16          1           0       -4.601020   -0.135595    0.846388
     17          1           0       -3.913743   -1.701085    0.417713
     18          1           0       -3.320744   -0.841759    1.862481
     19          1           0       -0.416035    2.169505    0.147351
     20          1           0       -0.824591    1.152251   -1.239075
     21          1           0       -1.417034    0.283006    1.520348
 ---------------------------------------------------------------------

 SCF Done:  E(RB3LYP) =  -495.612402721     A.U. after    1 cycles

 Isotropic polarizability for W=    0.000000       94.14 Bohr**3.
 End of Minotr Frequency-dependent properties file   721 does not exist.

                     1                      2                      3
                     A                      A                      A
 Frequencies --     9.0110                32.1323                52.2547
 Red. masses --     4.6445                 3.8282                 1.3046
 Frc consts  --     0.0002                 0.0023                 0.0021
 IR Inten    --     3.4415                 2.1214                 5.3144

                     4                      5                      6
                     A                      A                      A
 Frequencies --    74.0245               188.5757               221.5752
 Red. masses --     2.4821                 4.7614                 5.3493
 Frc consts  --     0.0080                 0.0998                 0.1547
 IR Inten    --     4.8377                 3.9603                 6.4340

                     7                      8                      9
                     A                      A                      A
 Frequencies --   283.8565               323.4224               389.8194
 Red. masses --     4.5520                 2.5176                 2.5987
 Frc consts  --     0.2161                 0.1552                 0.2327
 IR Inten    --     2.1402                 2.2423                 0.7893

                    10                     11                     12
                     A                      A                      A
 Frequencies --   440.5655               464.6567               507.3970
 Red. masses --     1.4597                 2.0979                 4.2293
 Frc consts  --     0.1669                 0.2669                 0.6415
 IR Inten    --    69.6034                38.2229                24.9066

                    13                     14                     15
                     A                      A                      A
 Frequencies --   599.4027               625.1830               637.3321
 Red. masses --     3.8709                 3.7934                 2.5009
 Frc consts  --     0.8194                 0.8736                 0.5985
 IR Inten    --    17.4187                 2.2875                 1.3871

                    16                     17                     18
                     A                      A                      A
 Frequencies --   685.9886               755.2719               812.5681
 Red. masses --     6.7737                 4.0346                 1.7707
 Frc consts  --     1.8781                 1.3560                 0.6889
 IR Inten    --     0.2327                 1.1593                12.1912

                    19                     20                     21
                     A                      A                      A
 Frequencies --   844.8593               888.9963               892.2945
 Red. masses --     2.3814                 2.5771                 1.2939
 Frc consts  --     1.0015                 1.2000                 0.6070
 IR Inten    --    11.7469                 7.3578                 0.3305

                    22                     23                     24
                     A                      A                      A
 Frequencies --   978.0308               993.7213              1005.5833
 Red. masses --     1.2976                 1.4539                 1.6693
 Frc consts  --     0.7313                 0.8459                 0.9946
 IR Inten    --     0.3327                 0.0394                 6.3345

                    25                     26                     27
                     A                      A                      A
 Frequencies --  1012.2250              1045.9795              1068.0656
 Red. masses --     7.0182                 2.5303                 1.6977
 Frc consts  --     4.2367                 1.6311                 1.1411
 IR Inten    --     7.0077                 8.9181                 7.1236

                    28                     29                     30
                     A                      A                      A
 Frequencies --  1098.7027              1116.0474              1128.5465
 Red. masses --     1.9896                 2.1462                 2.1079
 Frc consts  --     1.4151                 1.5750                 1.5818
 IR Inten    --     4.7496                 4.8364                 4.2701

                    31                     32                     33
                     A                      A                      A
 Frequencies --  1236.5775              1257.2357              1261.2717
 Red. masses --     2.6384                 1.3434                 1.3930
 Frc consts  --     2.3770                 1.2511                 1.3056
 IR Inten    --     1.3055                 2.1399                 4.6107

                    34                     35                     36
                     A                      A                      A
 Frequencies --  1277.3532              1310.7709              1365.1008
 Red. masses --     2.1566                 3.2969                 1.4170
 Frc consts  --     2.0732                 3.3374                 1.5558
 IR Inten    --   154.0898                42.9159                 7.0098

                    37                     38                     39
                     A                      A                      A
 Frequencies --  1407.0479              1427.5095              1461.6119
 Red. masses --     1.3117                 1.2623                 2.0283
 Frc consts  --     1.5301                 1.5156                 2.5529
 IR Inten    --     9.7599                23.5249                27.1111

                    40                     41                     42
                     A                      A                      A
 Frequencies --  1500.7988              1513.2100              1516.3636
 Red. masses --     1.0462                 1.0969                 1.0706
 Frc consts  --     1.3884                 1.4799                 1.4504
 IR Inten    --     6.3819                14.6813                19.8329

                    43                     44                     45
                     A                      A                      A
 Frequencies --  1544.2611              1555.3677              1622.0840
 Red. masses --     2.0954                 1.9226                 6.5311
 Frc consts  --     2.9442                 2.7403                10.1247
 IR Inten    --     0.7383               224.4237                15.8811

                    46                     47                     48
                     A                      A                      A
 Frequencies --  1655.3622              1788.3722              3042.8014
 Red. masses --     5.3285                 9.2036                 1.0673
 Frc consts  --     8.6028                17.3429                 5.8220
 IR Inten    --    59.7147               241.2880                37.0281

                    49                     50                     51
                     A                      A                      A
 Frequencies --  3064.7607              3107.1873              3137.5976
 Red. masses --     1.0359                 1.0953                 1.1028
 Frc consts  --     5.7327                 6.2303                 6.3967
 IR Inten    --     8.3295                12.9892                14.5546

                    52                     53                     54
                     A                      A                      A
 Frequencies --  3145.9544              3168.4551              3172.1544
 Red. masses --     1.1019                 1.0873                 1.0897
 Frc consts  --     6.4256                 6.4313                 6.4605
 IR Inten    --     9.4048                24.2536                24.6230

                    55                     56                     57
                     A                      A                      A
 Frequencies --  3192.7477              3208.3034              3627.1122
 Red. masses --     1.0942                 1.0933                 1.0777
 Frc consts  --     6.5718                 6.6305                 8.3533
 IR Inten    --    23.3702                 8.9306                17.7857

 - Thermochemistry -
 -------------------
 Temperature   298.150 Kelvin.  Pressure   1.00000 Atm.
 Atom     1 has atomic number  6 and mass  12.00000

 Molecular mass:   150.07931 amu.
 Principal axes and moments of inertia in atomic units:
                           1         2         3
     Eigenvalues --   598.885363460.028563698.95618
           X            0.99983   0.01292  -0.01306
           Y           -0.01299   0.99990  -0.00517
           Z            0.01299   0.00534   0.99990
 This molecule is an asymmetric top.
 Rotational symmetry number  1.
 Warning -- assumption of classical behavior for rotation
           may cause significant error
 Rotational temperatures (Kelvin)      0.14463     0.02503     0.02342
 Rotational constants (GHZ):           3.01350     0.52160     0.48791
 Zero-point vibrational energy     453046.5 (Joules/Mol)
                                  108.28071 (Kcal/Mol)
 Warning -- explicit consideration of  13 degrees of freedom as
           vibrations may cause significant error
 Vibrational temperatures:     12.96    46.23    75.18   106.50   271.32
          (Kelvin)            318.80   408.41   465.33   560.86   633.87
                              668.54   730.03   862.41   899.50   916.98
                              986.98  1086.67  1169.10  1215.56  1279.07
                             1283.81  1407.17  1429.74  1446.81  1456.36
                             1504.93  1536.71  1580.79  1605.74  1623.72
                             1779.16  1808.88  1814.69  1837.82  1885.90
                             1964.07  2024.43  2053.87  2102.93  2159.31
                             2177.17  2181.71  2221.84  2237.82  2333.81
                             2381.69  2573.07  4377.91  4409.50  4470.54
                             4514.30  4526.32  4558.69  4564.02  4593.65
                             4616.03  5218.60

 Zero-point correction=                           0.172556 (Hartree/Particle)
 Thermal correction to Energy=                    0.183113
 Thermal correction to Enthalpy=                  0.184057
 Thermal correction to Gibbs Free Energy=         0.132878
 Sum of electronic and zero-point Energies=           -495.439846
 Sum of electronic and thermal Energies=              -495.429290
 Sum of electronic and thermal Enthalpies=            -495.428345
 Sum of electronic and thermal Free Energies=         -495.479525

                     E (Thermal)             CV                S
                      KCal/Mol        Cal/Mol-Kelvin    Cal/Mol-Kelvin
 Total                  114.905             37.744            107.717
 Electronic               0.000              0.000              0.000
 Translational            0.889              2.981             40.928
 Rotational               0.889              2.981             30.417
 Vibrational            113.128             31.782             36.372
 Vibration     1          0.593              1.987              8.218
 Vibration     2          0.594              1.983              5.693
 Vibration     3          0.596              1.977              4.730
 Vibration     4          0.599              1.966              4.043
 Vibration     5          0.633              1.856              2.242
 Vibration     6          0.648              1.808              1.946
 Vibration     7          0.682              1.704              1.510
 Vibration     8          0.708              1.629              1.293
 Vibration     9          0.758              1.492              1.001
 Vibration    10          0.800              1.382              0.825
 Vibration    11          0.822              1.328              0.753
 Vibration    12          0.863              1.234              0.640
 Vibration    13          0.957              1.033              0.451

 Optimization completed.
    -- Stationary point found.
 Normal termination of Gaussian 09 at Fri Feb 16 21:09:02 2018.
