 Gaussian 09, Revision C.01,
 Gaussian 09:  AM64L-G09RevC.01 23-Sep-2011

 ---------------------------------------------------------
 #B3LYP/6-31G* Integral=(Grid=UltraFine) freq Opt pop=none
 ---------------------------------------------------------

 99/9=1/99;
 -----------------------------
 Optimization for frag51-conf0
 -----------------------------
 Charge =  0 Multiplicity = 1

 SCF Done:  E(RB3LYP) =  -1053.68473433     A.U. after   15 cycles
 SCF Done:  E(RB3LYP) =  -1053.68843278     A.U. after   12 cycles
 SCF Done:  E(RB3LYP) =  -1053.68885768     A.U. after   11 cycles
 SCF Done:  E(RB3LYP) =  -1053.68903273     A.U. after   12 cycles
 SCF Done:  E(RB3LYP) =  -1053.68914354     A.U. after   12 cycles
 SCF Done:  E(RB3LYP) =  -1053.68930750     A.U. after   11 cycles
 SCF Done:  E(RB3LYP) =  -1053.68966571     A.U. after   13 cycles
 SCF Done:  E(RB3LYP) =  -1053.69006825     A.U. after   12 cycles
 SCF Done:  E(RB3LYP) =  -1053.69010881     A.U. after   14 cycles
 SCF Done:  E(RB3LYP) =  -1053.68982382     A.U. after   15 cycles
 SCF Done:  E(RB3LYP) =  -1053.69058189     A.U. after   10 cycles
 SCF Done:  E(RB3LYP) =  -1053.69059444     A.U. after   10 cycles
 SCF Done:  E(RB3LYP) =  -1053.69060298     A.U. after   10 cycles
 SCF Done:  E(RB3LYP) =  -1053.69060461     A.U. after    9 cycles
 SCF Done:  E(RB3LYP) =  -1053.69060577     A.U. after    9 cycles
 SCF Done:  E(RB3LYP) =  -1053.69060651     A.U. after    8 cycles
 SCF Done:  E(RB3LYP) =  -1053.69060778     A.U. after    9 cycles
 SCF Done:  E(RB3LYP) =  -1053.69060972     A.U. after    9 cycles
 SCF Done:  E(RB3LYP) =  -1053.69061040     A.U. after    9 cycles
 Optimization completed.
    -- Stationary point found.
 Normal termination of Gaussian 09 at Fri Feb 16 21:57:48 2018.

 --------------------------------------------------------------------
 #N Geom=AllCheck Guess=TCheck SCRF=Check GenChk RB3LYP/6-31G(d) Freq
 --------------------------------------------------------------------

 Structure from the checkpoint file:  frag51-conf0.chk
 -----------------------------
 Optimization for frag51-conf0
 -----------------------------
 Charge =  0 Multiplicity = 1

                         Standard orientation:
 ---------------------------------------------------------------------
 Center     Atomic      Atomic             Coordinates (Angstroms)
 Number     Number       Type             X           Y           Z
 ---------------------------------------------------------------------
      1          6           0       -1.366457    1.711746    0.347324
      2          6           0       -2.592096    1.047988    0.406986
      3          6           0       -1.495494   -0.971165   -0.352241
      4          6           0       -0.198509    1.058454   -0.056543
      5          6           0       -0.266912   -0.304965   -0.413811
      6          6           0       -2.643838   -0.296329    0.055492
      7          6           0        3.251873   -0.901406    0.046937
      8          6           0        4.152238   -1.256911    1.221035
      9          6           0        0.951281   -1.083284   -0.877899
     10          6           0        1.112615    1.814851   -0.078228
     11          7           0        1.944953   -1.290198    0.171128
     12          8           0        3.678242   -0.309376   -0.938662
     13          8           0        0.849631    3.213233   -0.071671
     14         17           0       -4.176212   -1.161512    0.121225
     15          1           0       -1.310055    2.762589    0.606811
     16          1           0       -3.491275    1.568464    0.719311
     17          1           0       -1.559575   -2.018339   -0.632645
     18          1           0        4.914023   -1.964593    0.878148
     19          1           0        4.673293   -0.353858    1.551653
     20          1           0        3.620700   -1.695712    2.071331
     21          1           0        0.628939   -2.054971   -1.272764
     22          1           0        1.480463   -0.565940   -1.683040
     23          1           0        1.708171    1.528080    0.804835
     24          1           0        1.708186    1.527305   -0.955737
     25          1           0        1.651930   -1.768051    1.011613
     26          1           0        1.704963    3.667383   -0.069875
 ---------------------------------------------------------------------

 SCF Done:  E(RB3LYP) =  -1053.69061040     A.U. after    1 cycles

 Isotropic polarizability for W=    0.000000      126.35 Bohr**3.
 End of Minotr Frequency-dependent properties file   721 does not exist.

                     1                      2                      3
                     A                      A                      A
 Frequencies --    34.0162                45.9413                63.2119
 Red. masses --     4.6850                 1.4557                 5.2117
 Frc consts  --     0.0032                 0.0018                 0.0123
 IR Inten    --     3.4196                 0.0558                 9.0262

                     4                      5                      6
                     A                      A                      A
 Frequencies --    65.8997                72.1539               112.6526
 Red. masses --     3.1852                 2.4776                 3.1947
 Frc consts  --     0.0081                 0.0076                 0.0239
 IR Inten    --     6.8166                 3.0782                 4.5420

                     7                      8                      9
                     A                      A                      A
 Frequencies --   164.5475               177.9257               198.0372
 Red. masses --     6.3123                 7.1642                 5.0130
 Frc consts  --     0.1007                 0.1336                 0.1158
 IR Inten    --     2.6175                 3.3643                 7.1046

                    10                     11                     12
                     A                      A                      A
 Frequencies --   251.9630               273.3915               290.6748
 Red. masses --     1.2235                 4.1720                 3.7758
 Frc consts  --     0.0458                 0.1837                 0.1880
 IR Inten    --   103.5594                 9.0990                 5.2191

                    13                     14                     15
                     A                      A                      A
 Frequencies --   318.4412               338.0490               394.5131
 Red. masses --     2.8579                 4.9357                 4.8821
 Frc consts  --     0.1707                 0.3323                 0.4477
 IR Inten    --     4.1116                 0.5889                10.5168

                    16                     17                     18
                     A                      A                      A
 Frequencies --   433.3093               460.7594               483.3308
 Red. masses --     3.0201                 1.3903                 2.7814
 Frc consts  --     0.3341                 0.1739                 0.3828
 IR Inten    --     7.4538                92.6686                26.9098

                    19                     20                     21
                     A                      A                      A
 Frequencies --   521.9392               540.2215               622.9183
 Red. masses --     4.0916                 4.2422                 3.1845
 Frc consts  --     0.6567                 0.7294                 0.7280
 IR Inten    --     4.8038                10.2314                 3.3231

                    22                     23                     24
                     A                      A                      A
 Frequencies --   625.5285               644.5013               661.3867
 Red. masses --     4.0223                 3.0403                 5.5888
 Frc consts  --     0.9273                 0.7441                 1.4404
 IR Inten    --     5.8085                 0.1345                 9.7671

                    25                     26                     27
                     A                      A                      A
 Frequencies --   726.5713               781.0920               838.0326
 Red. masses --     3.8502                 4.0444                 1.3023
 Frc consts  --     1.1975                 1.4538                 0.5389
 IR Inten    --     2.6759                 7.4759                28.8347

                    28                     29                     30
                     A                      A                      A
 Frequencies --   885.9641               888.3757               904.6295
 Red. masses --     1.9976                 2.5748                 2.7587
 Frc consts  --     0.9238                 1.1973                 1.3301
 IR Inten    --    23.0215                13.6396                15.9280

                    31                     32                     33
                     A                      A                      A
 Frequencies --   969.9671              1002.8459              1034.5355
 Red. masses --     1.2984                 1.6835                 1.9849
 Frc consts  --     0.7198                 0.9976                 1.2516
 IR Inten    --     0.7351                 8.0587                 6.7621

                    34                     35                     36
                     A                      A                      A
 Frequencies --  1042.6890              1067.4447              1080.2042
 Red. masses --     2.1578                 1.7057                 6.2586
 Frc consts  --     1.3822                 1.1451                 4.3027
 IR Inten    --    11.0687                11.1925                67.8112

                    37                     38                     39
                     A                      A                      A
 Frequencies --  1107.0526              1124.2903              1149.2261
 Red. masses --     3.5697                 2.1919                 2.2277
 Frc consts  --     2.5776                 1.6324                 1.7335
 IR Inten    --     6.7345                20.1948                19.4466

                    40                     41                     42
                     A                      A                      A
 Frequencies --  1202.5788              1216.3670              1255.1086
 Red. masses --     1.8536                 1.5518                 1.4234
 Frc consts  --     1.5794                 1.3527                 1.3212
 IR Inten    --    42.0198                55.1973                 7.2229

                    43                     44                     45
                     A                      A                      A
 Frequencies --  1261.5407              1278.4544              1284.3968
 Red. masses --     1.5285                 1.4012                 1.4361
 Frc consts  --     1.4332                 1.3494                 1.3958
 IR Inten    --    11.8761                62.6770               102.5584

                    46                     47                     48
                     A                      A                      A
 Frequencies --  1322.6521              1351.4553              1393.4264
 Red. masses --     1.2887                 4.1394                 1.3593
 Frc consts  --     1.3283                 4.4544                 1.5550
 IR Inten    --    19.2621                13.2537                 9.6905

                    49                     50                     51
                     A                      A                      A
 Frequencies --  1427.1534              1447.6513              1477.4952
 Red. masses --     1.2639                 3.1577                 1.4456
 Frc consts  --     1.5167                 3.8989                 1.8594
 IR Inten    --    25.6870                12.4863                35.5153

                    52                     53                     54
                     A                      A                      A
 Frequencies --  1500.5052              1515.7685              1524.0183
 Red. masses --     1.0468                 1.0720                 1.1656
 Frc consts  --     1.3886                 1.4511                 1.5950
 IR Inten    --     7.3465                27.0028                18.0174

                    55                     56                     57
                     A                      A                      A
 Frequencies --  1527.3586              1540.8889              1556.5400
 Red. masses --     1.5799                 1.3762                 1.9079
 Frc consts  --     2.1715                 1.9252                 2.7235
 IR Inten    --    33.8377                 7.5332               234.1619

                    58                     59                     60
                     A                      A                      A
 Frequencies --  1624.5072              1654.0175              1777.1593
 Red. masses --     6.8606                 6.1449                 8.9857
 Frc consts  --    10.6674                 9.9048                16.7206
 IR Inten    --    13.4864                16.1217               227.2327

                    61                     62                     63
                     A                      A                      A
 Frequencies --  2982.9124              3045.1653              3050.0039
 Red. masses --     1.0697                 1.0909                 1.0689
 Frc consts  --     5.6080                 5.9603                 5.8588
 IR Inten    --    53.3188                23.5113                33.4773

                    64                     65                     66
                     A                      A                      A
 Frequencies --  3064.5486              3123.3022              3136.9332
 Red. masses --     1.0358                 1.0943                 1.1026
 Frc consts  --     5.7313                 6.2895                 6.3929
 IR Inten    --     8.0994                 5.4607                12.9615

                    67                     68                     69
                     A                      A                      A
 Frequencies --  3145.5633              3204.1264              3218.3908
 Red. masses --     1.1022                 1.0909                 1.0897
 Frc consts  --     6.4258                 6.5988                 6.6505
 IR Inten    --    10.3792                 4.2428                 2.0193

                    70                     71                     72
                     A                      A                      A
 Frequencies --  3238.0438              3624.4713              3766.1590
 Red. masses --     1.0927                 1.0777                 1.0665
 Frc consts  --     6.7503                 8.3413                 8.9127
 IR Inten    --     2.0792                17.6915                24.0003

 - Thermochemistry -
 -------------------
 Temperature   298.150 Kelvin.  Pressure   1.00000 Atm.
 Atom     1 has atomic number  6 and mass  12.00000

 Molecular mass:   213.05566 amu.
 Principal axes and moments of inertia in atomic units:
                           1         2         3
     Eigenvalues --  1809.169505783.148007127.25634
           X            0.99976  -0.01918   0.01034
           Y            0.01920   0.99981  -0.00124
           Z           -0.01032   0.00144   0.99995
 This molecule is an asymmetric top.
 Rotational symmetry number  1.
 Warning -- assumption of classical behavior for rotation
           may cause significant error
 Rotational temperatures (Kelvin)      0.04787     0.01498     0.01215
 Rotational constants (GHZ):           0.99755     0.31207     0.25322
 Zero-point vibrational energy     545119.7 (Joules/Mol)
                                  130.28673 (Kcal/Mol)
 Warning -- explicit consideration of  20 degrees of freedom as
           vibrations may cause significant error
 Vibrational temperatures:     48.94    66.10    90.95    94.81   103.81
          (Kelvin)            162.08   236.75   256.00   284.93   362.52
                              393.35   418.22   458.17   486.38   567.62
                              623.43   662.93   695.40   750.95   777.26
                              896.24   899.99   927.29   951.59  1045.37
                             1123.82  1205.74  1274.70  1278.17  1301.56
                             1395.56  1442.87  1488.46  1500.20  1535.81
                             1554.17  1592.80  1617.60  1653.48  1730.24
                             1750.08  1805.82  1815.07  1839.41  1847.96
                             1903.00  1944.44  2004.83  2053.35  2082.84
                             2125.78  2158.89  2180.85  2192.72  2197.53
                             2216.99  2239.51  2337.30  2379.76  2556.93
                             4291.74  4381.31  4388.27  4409.20  4493.73
                             4513.34  4525.76  4610.02  4630.54  4658.82
                             5214.80  5418.66

 Zero-point correction=                           0.207625 (Hartree/Particle)
 Thermal correction to Energy=                    0.222096
 Thermal correction to Enthalpy=                  0.223040
 Thermal correction to Gibbs Free Energy=         0.164293
 Sum of electronic and zero-point Energies=          -1053.482985
 Sum of electronic and thermal Energies=             -1053.468514
 Sum of electronic and thermal Enthalpies=           -1053.467570
 Sum of electronic and thermal Free Energies=        -1053.526317

                     E (Thermal)             CV                S
                      KCal/Mol        Cal/Mol-Kelvin    Cal/Mol-Kelvin
 Total                  139.367             52.093            123.644
 Electronic               0.000              0.000              0.000
 Translational            0.889              2.981             41.973
 Rotational               0.889              2.981             32.678
 Vibrational            137.590             46.131             48.994
 Vibration     1          0.594              1.983              5.580
 Vibration     2          0.595              1.979              4.985
 Vibration     3          0.597              1.972              4.354
 Vibration     4          0.597              1.971              4.272
 Vibration     5          0.598              1.967              4.094
 Vibration     6          0.607              1.939              3.223
 Vibration     7          0.623              1.886              2.497
 Vibration     8          0.628              1.869              2.350
 Vibration     9          0.637              1.843              2.151
 Vibration    10          0.664              1.759              1.717
 Vibration    11          0.676              1.722              1.575
 Vibration    12          0.687              1.691              1.470
 Vibration    13          0.705              1.638              1.318
 Vibration    14          0.718              1.599              1.221
 Vibration    15          0.761              1.482              0.983
 Vibration    16          0.794              1.398              0.848
 Vibration    17          0.819              1.337              0.764
 Vibration    18          0.840              1.287              0.701
 Vibration    19          0.877              1.201              0.605
 Vibration    20          0.895              1.161              0.565

 Optimization completed.
    -- Stationary point found.
 Normal termination of Gaussian 09 at Fri Feb 16 22:22:00 2018.
