 Gaussian 09, Revision C.01,
 Gaussian 09:  AM64L-G09RevC.01 23-Sep-2011

 ----------------------------------------------------------------------
 #HF/6-31G* Geom=AllCheck Guess=Read Pop=(MK,ReadRadii) Integral=(Grid=
 UltraFine) iop(6/33=2)
 ----------------------------------------------------------------------

 Structure from the checkpoint file:  frag51-conf0.chk
 -----------------------------
 Optimization for frag51-conf0
 -----------------------------
 Charge =  0 Multiplicity = 1

                         Standard orientation:
 ---------------------------------------------------------------------
 Center     Atomic      Atomic             Coordinates (Angstroms)
 Number     Number       Type             X           Y           Z
 ---------------------------------------------------------------------
      1          6           0       -1.366457    1.711746    0.347324
      2          6           0       -2.592096    1.047988    0.406986
      3          6           0       -1.495494   -0.971165   -0.352241
      4          6           0       -0.198509    1.058454   -0.056543
      5          6           0       -0.266912   -0.304965   -0.413811
      6          6           0       -2.643838   -0.296329    0.055492
      7          6           0        3.251873   -0.901406    0.046937
      8          6           0        4.152238   -1.256911    1.221035
      9          6           0        0.951281   -1.083284   -0.877899
     10          6           0        1.112615    1.814851   -0.078228
     11          7           0        1.944953   -1.290198    0.171128
     12          8           0        3.678242   -0.309376   -0.938662
     13          8           0        0.849631    3.213233   -0.071671
     14         17           0       -4.176212   -1.161512    0.121225
     15          1           0       -1.310055    2.762589    0.606811
     16          1           0       -3.491275    1.568464    0.719311
     17          1           0       -1.559575   -2.018339   -0.632645
     18          1           0        4.914023   -1.964593    0.878148
     19          1           0        4.673293   -0.353858    1.551653
     20          1           0        3.620700   -1.695712    2.071331
     21          1           0        0.628939   -2.054971   -1.272764
     22          1           0        1.480463   -0.565940   -1.683040
     23          1           0        1.708171    1.528080    0.804835
     24          1           0        1.708186    1.527305   -0.955737
     25          1           0        1.651930   -1.768051    1.011613
     26          1           0        1.704963    3.667383   -0.069875
 ---------------------------------------------------------------------

 SCF Done:  E(RHF) =  -1049.32968458     A.U. after   14 cycles

 The electronic state is 1-A.
 Alpha  occ. eigenvalues -- -104.82469 -20.57008 -20.53076 -15.60216 -11.36562
 Alpha  occ. eigenvalues --  -11.30394 -11.28825 -11.28139 -11.25806 -11.25298
 Alpha  occ. eigenvalues --  -11.25285 -11.25000 -11.24866 -11.24173 -10.55768
 Alpha  occ. eigenvalues --   -8.02705  -8.02378  -8.02373  -1.38294  -1.36386
 Alpha  occ. eigenvalues --   -1.24029  -1.18488  -1.12131  -1.05296  -1.02116
 Alpha  occ. eigenvalues --   -1.01202  -0.94333  -0.90586  -0.83195  -0.79904
 Alpha  occ. eigenvalues --   -0.79096  -0.71609  -0.68792  -0.68088  -0.66244
 Alpha  occ. eigenvalues --   -0.65300  -0.64262  -0.62208  -0.61455  -0.58990
 Alpha  occ. eigenvalues --   -0.58622  -0.58412  -0.56788  -0.56068  -0.53440
 Alpha  occ. eigenvalues --   -0.53141  -0.52364  -0.50174  -0.48589  -0.46795
 Alpha  occ. eigenvalues --   -0.45096  -0.44769  -0.42710  -0.39927  -0.34343
 Alpha  occ. eigenvalues --   -0.32420
 Alpha virt. eigenvalues --    0.12184   0.13048   0.18478   0.19954   0.20863
 Alpha virt. eigenvalues --    0.21964   0.25591   0.25832   0.28503   0.28734
 Alpha virt. eigenvalues --    0.29916   0.31732   0.32053   0.32497   0.33664

 Mulliken atomic charges:
              1
     1  C   -0.199897
     2  C   -0.181034
     3  C   -0.213927
     4  C   -0.032386
     5  C    0.012279
     6  C   -0.133365
     7  C    0.759839
     8  C   -0.576998
     9  C   -0.171210
    10  C    0.008673
    11  N   -0.800828
    12  O   -0.631794
    13  O   -0.753792
    14  Cl  -0.011840
    15  H    0.252857
    16  H    0.231566
    17  H    0.225669
    18  H    0.211907
    19  H    0.208686
    20  H    0.170333
    21  H    0.192070
    22  H    0.247655
    23  H    0.155557
    24  H    0.193218
    25  H    0.388977
    26  H    0.447786
 Sum of Mulliken atomic charges =   0.00000

 Dipole moment (field-independent basis, Debye):
    X=              2.0710    Y=             -1.2086    Z=              2.7739  Tot=              3.6666
 Quadrupole moment (field-independent basis, Debye-Ang):
   XX=            -98.9106   YY=            -82.8277   ZZ=            -91.0070
   XY=             -3.2340   XZ=              9.9678   YZ=              0.2199

 Normal termination of Gaussian 09 at Sat Feb 17 21:06:23 2018.
