 Gaussian 09, Revision C.01,
 Gaussian 09:  AM64L-G09RevC.01 23-Sep-2011

 ----------------------------------------------------------------------
 #HF/6-31G* Geom=AllCheck Guess=Read Pop=(MK,ReadRadii) Integral=(Grid=
 UltraFine) iop(6/33=2)
 ----------------------------------------------------------------------

 Structure from the checkpoint file:  frag46-conf0.chk
 -----------------------------
 Optimization for frag46-conf0
 -----------------------------
 Charge =  0 Multiplicity = 1

                         Standard orientation:
 ---------------------------------------------------------------------
 Center     Atomic      Atomic             Coordinates (Angstroms)
 Number     Number       Type             X           Y           Z
 ---------------------------------------------------------------------
      1          6           0       -0.223387    1.171824    0.068137
      2          6           0        0.121908   -1.194861   -0.207003
      3          6           0       -1.602958    0.979572    0.104247
      4          6           0       -1.249752   -1.402769   -0.179089
      5          6           0        0.659770    0.096934   -0.073300
      6          6           0       -2.123527   -0.316187   -0.016263
      7          6           0        2.127317    0.403879   -0.096630
      8          6           0        4.407364   -0.452401    0.244138
      9          6           0       -4.387024    0.432642    0.148788
     10          7           0        2.970971   -0.649814    0.154953
     11          8           0        2.550575    1.532391   -0.337025
     12          8           0       -3.449742   -0.624589    0.003780
     13          1           0        0.194543    2.170079    0.147587
     14          1           0        0.773323   -2.049033   -0.372539
     15          1           0       -2.257465    1.835480    0.222525
     16          1           0       -1.673041   -2.395723   -0.293096
     17          1           0        4.689186    0.329096   -0.462575
     18          1           0        4.922670   -1.382303   -0.014466
     19          1           0        4.724951   -0.135689    1.247261
     20          1           0       -5.371506   -0.038186    0.135850
     21          1           0       -4.316334    1.149751   -0.679208
     22          1           0       -4.251110    0.963874    1.099725
     23          1           0        2.583050   -1.472852    0.592071
 ---------------------------------------------------------------------

 SCF Done:  E(RHF) =  -551.396085460     A.U. after   14 cycles

 The electronic state is 1-A.
 Alpha  occ. eigenvalues --  -20.60053 -20.51663 -15.58423 -11.34963 -11.31592
 Alpha  occ. eigenvalues --  -11.29424 -11.25723 -11.25640 -11.24960 -11.24125
 Alpha  occ. eigenvalues --  -11.23955 -11.23749  -1.41699  -1.36728  -1.21952
 Alpha  occ. eigenvalues --   -1.15532  -1.03775  -1.02661  -0.96298  -0.93578
 Alpha  occ. eigenvalues --   -0.83964  -0.83596  -0.77702  -0.73747  -0.70722
 Alpha  occ. eigenvalues --   -0.67510  -0.65946  -0.63409  -0.62740  -0.61648
 Alpha  occ. eigenvalues --   -0.60201  -0.59490  -0.57813  -0.54489  -0.54319
 Alpha  occ. eigenvalues --   -0.54028  -0.52501  -0.51942  -0.48593  -0.46562
 Alpha  occ. eigenvalues --   -0.41776  -0.38388  -0.34696  -0.31648
 Alpha virt. eigenvalues --    0.11422   0.13198   0.22286   0.23631   0.24687
 Alpha virt. eigenvalues --    0.25950   0.27889   0.29473   0.30355   0.31010
 Alpha virt. eigenvalues --    0.31628   0.31972   0.33096   0.33945   0.35994

 Mulliken atomic charges:
              1
     1  C   -0.163916
     2  C   -0.189563
     3  C   -0.292414
     4  C   -0.259547
     5  C   -0.145260
     6  C    0.449062
     7  C    0.803165
     8  C   -0.278765
     9  C   -0.190462
    10  N   -0.808420
    11  O   -0.640617
    12  O   -0.657230
    13  H    0.255860
    14  H    0.213298
    15  H    0.216198
    16  H    0.222708
    17  H    0.218584
    18  H    0.167054
    19  H    0.166939
    20  H    0.196199
    21  H    0.168438
    22  H    0.166905
    23  H    0.381781
 Sum of Mulliken atomic charges =   0.00000

 Dipole moment (field-independent basis, Debye):
    X=             -1.9650    Y=             -2.1225    Z=              1.4109  Tot=              3.2182
 Quadrupole moment (field-independent basis, Debye-Ang):
   XX=            -59.3464   YY=            -69.6917   ZZ=            -73.6233
   XY=            -16.0398   XZ=              2.5260   YZ=              1.1194

 Normal termination of Gaussian 09 at Sat Feb 17 21:05:03 2018.
