 Gaussian 09, Revision C.01,
 Gaussian 09:  AM64L-G09RevC.01 23-Sep-2011

 ---------------------------------------------------------
 #B3LYP/6-31G* Integral=(Grid=UltraFine) freq Opt pop=none
 ---------------------------------------------------------

 99/9=1/99;
 -----------------------------
 Optimization for frag46-conf0
 -----------------------------
 Charge =  0 Multiplicity = 1

 SCF Done:  E(RB3LYP) =  -554.782807105     A.U. after   15 cycles
 SCF Done:  E(RB3LYP) =  -554.785085958     A.U. after   12 cycles
 SCF Done:  E(RB3LYP) =  -554.785335985     A.U. after   12 cycles
 SCF Done:  E(RB3LYP) =  -554.785350556     A.U. after   12 cycles
 SCF Done:  E(RB3LYP) =  -554.785510874     A.U. after   11 cycles
 SCF Done:  E(RB3LYP) =  -554.785585022     A.U. after   11 cycles
 SCF Done:  E(RB3LYP) =  -554.785616329     A.U. after   10 cycles
 SCF Done:  E(RB3LYP) =  -554.785625833     A.U. after   10 cycles
 SCF Done:  E(RB3LYP) =  -554.785631942     A.U. after   10 cycles
 SCF Done:  E(RB3LYP) =  -554.785635588     A.U. after    9 cycles
 SCF Done:  E(RB3LYP) =  -554.785644146     A.U. after   10 cycles
 SCF Done:  E(RB3LYP) =  -554.785656900     A.U. after    9 cycles
 SCF Done:  E(RB3LYP) =  -554.785662433     A.U. after   10 cycles
 SCF Done:  E(RB3LYP) =  -554.785662807     A.U. after    9 cycles
 SCF Done:  E(RB3LYP) =  -554.785662844     A.U. after    7 cycles
 Optimization completed.
    -- Stationary point found.
 Normal termination of Gaussian 09 at Fri Feb 16 21:12:33 2018.

 --------------------------------------------------------------------
 #N Geom=AllCheck Guess=TCheck SCRF=Check GenChk RB3LYP/6-31G(d) Freq
 --------------------------------------------------------------------

 Structure from the checkpoint file:  frag46-conf0.chk
 -----------------------------
 Optimization for frag46-conf0
 -----------------------------
 Charge =  0 Multiplicity = 1

                         Standard orientation:
 ---------------------------------------------------------------------
 Center     Atomic      Atomic             Coordinates (Angstroms)
 Number     Number       Type             X           Y           Z
 ---------------------------------------------------------------------
      1          6           0       -0.223387    1.171824    0.068137
      2          6           0        0.121908   -1.194861   -0.207003
      3          6           0       -1.602958    0.979572    0.104247
      4          6           0       -1.249752   -1.402769   -0.179089
      5          6           0        0.659770    0.096934   -0.073300
      6          6           0       -2.123527   -0.316187   -0.016263
      7          6           0        2.127317    0.403879   -0.096630
      8          6           0        4.407364   -0.452401    0.244138
      9          6           0       -4.387024    0.432642    0.148788
     10          7           0        2.970971   -0.649814    0.154953
     11          8           0        2.550575    1.532391   -0.337025
     12          8           0       -3.449742   -0.624589    0.003780
     13          1           0        0.194543    2.170079    0.147587
     14          1           0        0.773323   -2.049033   -0.372539
     15          1           0       -2.257465    1.835480    0.222525
     16          1           0       -1.673041   -2.395723   -0.293096
     17          1           0        4.689186    0.329096   -0.462575
     18          1           0        4.922670   -1.382303   -0.014466
     19          1           0        4.724951   -0.135689    1.247261
     20          1           0       -5.371506   -0.038186    0.135850
     21          1           0       -4.316334    1.149751   -0.679208
     22          1           0       -4.251110    0.963874    1.099725
     23          1           0        2.583050   -1.472852    0.592071
 ---------------------------------------------------------------------

 SCF Done:  E(RB3LYP) =  -554.785662844     A.U. after    1 cycles

 Isotropic polarizability for W=    0.000000      108.54 Bohr**3.
 End of Minotr Frequency-dependent properties file   721 does not exist.

                     1                      2                      3
                     A                      A                      A
 Frequencies --    47.4201                51.6392                78.8228
 Red. masses --     1.2738                 2.4081                 4.4463
 Frc consts  --     0.0017                 0.0038                 0.0163
 IR Inten    --     2.8257                 3.3800                 1.5327

                     4                      5                      6
                     A                      A                      A
 Frequencies --   110.0918               125.9869               176.5579
 Red. masses --     3.4678                 3.7319                 3.8687
 Frc consts  --     0.0248                 0.0349                 0.0711
 IR Inten    --     2.4882                 4.4498                 8.0496

                     7                      8                      9
                     A                      A                      A
 Frequencies --   233.3372               247.0698               300.6664
 Red. masses --     2.0718                 1.5719                 3.4685
 Frc consts  --     0.0665                 0.0565                 0.1847
 IR Inten    --     1.7583                 1.5578                13.4045

                    10                     11                     12
                     A                      A                      A
 Frequencies --   325.4741               331.0971               427.8835
 Red. masses --     4.4189                 5.6990                 3.1529
 Frc consts  --     0.2758                 0.3681                 0.3401
 IR Inten    --     3.4645                 5.2625                 0.4640

                    13                     14                     15
                     A                      A                      A
 Frequencies --   450.6151               477.5930               518.4130
 Red. masses --     3.9192                 1.6671                 2.2426
 Frc consts  --     0.4689                 0.2240                 0.3551
 IR Inten    --    16.8073                66.4125                26.4337

                    16                     17                     18
                     A                      A                      A
 Frequencies --   539.2498               616.2501               649.4756
 Red. masses --     3.1601                 5.5457                 6.8535
 Frc consts  --     0.5414                 1.2408                 1.7033
 IR Inten    --     1.8736                19.0041                 3.4282

                    19                     20                     21
                     A                      A                      A
 Frequencies --   701.7755               770.5426               795.6337
 Red. masses --     3.9205                 5.1254                 4.3250
 Frc consts  --     1.1376                 1.7930                 1.6131
 IR Inten    --     7.5143                25.1076                 3.6054

                    22                     23                     24
                     A                      A                      A
 Frequencies --   832.5756               853.4039               858.1324
 Red. masses --     1.2511                 2.5827                 2.4306
 Frc consts  --     0.5110                 1.1082                 1.0545
 IR Inten    --     0.3334                25.1563                17.1845

                    25                     26                     27
                     A                      A                      A
 Frequencies --   957.9071               978.5058              1020.3069
 Red. masses --     1.2945                 1.3263                 3.9238
 Frc consts  --     0.6998                 0.7482                 2.4067
 IR Inten    --     0.3371                 0.8937                10.0205

                    28                     29                     30
                     A                      A                      A
 Frequencies --  1041.5873              1076.7942              1144.1140
 Red. masses --     2.8806                 5.8718                 1.3089
 Frc consts  --     1.8413                 4.0113                 1.0095
 IR Inten    --     7.7278                50.9609                 5.0390

                    31                     32                     33
                     A                      A                      A
 Frequencies --  1156.4651              1178.6228              1182.7101
 Red. masses --     1.2966                 2.7801                 1.5813
 Frc consts  --     1.0217                 2.2754                 1.3032
 IR Inten    --    30.3203                 1.4444                 1.9573

                    34                     35                     36
                     A                      A                      A
 Frequencies --  1184.3492              1208.3875              1218.0520
 Red. masses --     1.2703                 1.2421                 1.3873
 Frc consts  --     1.0498                 1.0686                 1.2127
 IR Inten    --     0.7978               107.7228                 6.5398

                    37                     38                     39
                     A                      A                      A
 Frequencies --  1294.2982              1310.5572              1342.4099
 Red. masses --     3.5267                 2.9740                 1.3174
 Frc consts  --     3.4809                 3.0096                 1.3988
 IR Inten    --   458.5603                46.5697                 1.0540

                    40                     41                     42
                     A                      A                      A
 Frequencies --  1364.5157              1460.7622              1465.8210
 Red. masses --     8.8164                 2.4623                 1.3021
 Frc consts  --     9.6716                 3.0956                 1.6484
 IR Inten    --    65.0969                 4.8295                 9.6344

                    43                     44                     45
                     A                      A                      A
 Frequencies --  1499.2181              1511.8608              1521.5139
 Red. masses --     1.2076                 1.1525                 1.0479
 Frc consts  --     1.5993                 1.5521                 1.4293
 IR Inten    --    41.0339                98.2562                 5.7839

                    46                     47                     48
                     A                      A                      A
 Frequencies --  1529.5969              1533.9443              1558.6831
 Red. masses --     1.1615                 1.0594                 1.7810
 Frc consts  --     1.6011                 1.4687                 2.5494
 IR Inten    --    57.3557                27.0288               141.7968

                    49                     50                     51
                     A                      A                      A
 Frequencies --  1578.5683              1626.3895              1668.7947
 Red. masses --     1.8529                 6.8102                 5.6917
 Frc consts  --     2.7203                10.6135                 9.3389
 IR Inten    --    81.0542                 1.5273               162.7766

                    52                     53                     54
                     A                      A                      A
 Frequencies --  1760.1345              3029.9458              3036.0684
 Red. masses --     9.7757                 1.0344                 1.0479
 Frc consts  --    17.8438                 5.5953                 5.6910
 IR Inten    --   204.1430                58.4252                71.3942

                    55                     56                     57
                     A                      A                      A
 Frequencies --  3090.9346              3109.3919              3160.5032
 Red. masses --     1.1070                 1.0919                 1.1002
 Frc consts  --     6.2310                 6.2200                 6.4752
 IR Inten    --    40.2927                35.2903                25.4767

                    58                     59                     60
                     A                      A                      A
 Frequencies --  3174.5626              3187.2883              3216.2795
 Red. masses --     1.1000                 1.0880                 1.0924
 Frc consts  --     6.5313                 6.5120                 6.6577
 IR Inten    --     4.3297                14.2429                 7.2826

                    61                     62                     63
                     A                      A                      A
 Frequencies --  3217.9917              3231.2274              3631.9486
 Red. masses --     1.0883                 1.0935                 1.0767
 Frc consts  --     6.6402                 6.7265                 8.3684
 IR Inten    --     3.8567                 8.7832                13.1924

 - Thermochemistry -
 -------------------
 Temperature   298.150 Kelvin.  Pressure   1.00000 Atm.
 Atom     1 has atomic number  6 and mass  12.00000

 Molecular mass:   165.07898 amu.
 Principal axes and moments of inertia in atomic units:
                           1         2         3
     Eigenvalues --   568.618994304.577084812.44890
           X            0.99982  -0.01882   0.00189
           Y            0.01881   0.99979   0.00866
           Z           -0.00205  -0.00863   0.99996
 This molecule is an asymmetric top.
 Rotational symmetry number  1.
 Warning -- assumption of classical behavior for rotation
           may cause significant error
 Rotational temperatures (Kelvin)      0.15232     0.02012     0.01800
 Rotational constants (GHZ):           3.17390     0.41926     0.37502
 Zero-point vibrational energy     496334.9 (Joules/Mol)
                                  118.62689 (Kcal/Mol)
 Warning -- explicit consideration of  17 degrees of freedom as
           vibrations may cause significant error
 Vibrational temperatures:     68.23    74.30   113.41   158.40   181.27
          (Kelvin)            254.03   335.72   355.48   432.59   468.28
                              476.37   615.63   648.33   687.15   745.88
                              775.86   886.65   934.45  1009.70  1108.64
                             1144.74  1197.89  1227.86  1234.66  1378.21
                             1407.85  1467.99  1498.61  1549.26  1646.12
                             1663.89  1695.77  1701.65  1704.01  1738.60
                             1752.50  1862.20  1885.60  1931.43  1963.23
                             2101.71  2108.99  2157.04  2175.23  2189.12
                             2200.75  2207.00  2242.59  2271.20  2340.01
                             2401.02  2532.44  4359.41  4368.22  4447.16
                             4473.72  4547.25  4567.48  4585.79  4627.50
                             4629.97  4649.01  5225.56

 Zero-point correction=                           0.189044 (Hartree/Particle)
 Thermal correction to Energy=                    0.200865
 Thermal correction to Enthalpy=                  0.201809
 Thermal correction to Gibbs Free Energy=         0.150289
 Sum of electronic and zero-point Energies=           -554.596619
 Sum of electronic and thermal Energies=              -554.584798
 Sum of electronic and thermal Enthalpies=            -554.583854
 Sum of electronic and thermal Free Energies=         -554.635374

                     E (Thermal)             CV                S
                      KCal/Mol        Cal/Mol-Kelvin    Cal/Mol-Kelvin
 Total                  126.045             43.005            108.433
 Electronic               0.000              0.000              0.000
 Translational            0.889              2.981             41.212
 Rotational               0.889              2.981             30.844
 Vibrational            124.267             37.043             36.377
 Vibration     1          0.595              1.979              4.922
 Vibration     2          0.596              1.977              4.754
 Vibration     3          0.600              1.963              3.920
 Vibration     4          0.606              1.941              3.267
 Vibration     5          0.611              1.927              3.006
 Vibration     6          0.628              1.871              2.365
 Vibration     7          0.654              1.790              1.853
 Vibration     8          0.661              1.768              1.751
 Vibration     9          0.693              1.672              1.413
 Vibration    10          0.710              1.625              1.282
 Vibration    11          0.713              1.613              1.255
 Vibration    12          0.789              1.410              0.866
 Vibration    13          0.809              1.360              0.794
 Vibration    14          0.834              1.300              0.717
 Vibration    15          0.873              1.209              0.614
 Vibration    16          0.894              1.163              0.567
 Vibration    17          0.976              0.998              0.423

 Optimization completed.
    -- Stationary point found.
 Normal termination of Gaussian 09 at Fri Feb 16 21:28:16 2018.
