 Gaussian 09, Revision C.01,
 Gaussian 09:  AM64L-G09RevC.01 23-Sep-2011

 ---------------------------------------------------------
 #B3LYP/6-31G* Integral=(Grid=UltraFine) freq Opt pop=none
 ---------------------------------------------------------

 99/9=1/99;
 -----------------------------
 Optimization for frag25-conf0
 -----------------------------
 Charge =  0 Multiplicity = 1

 SCF Done:  E(RB3LYP) =  -1048.99498980     A.U. after   15 cycles
 SCF Done:  E(RB3LYP) =  -1049.00112251     A.U. after   13 cycles
 SCF Done:  E(RB3LYP) =  -1049.00098177     A.U. after   12 cycles
 SCF Done:  E(RB3LYP) =  -1049.00157006     A.U. after   12 cycles
 SCF Done:  E(RB3LYP) =  -1049.00171127     A.U. after   12 cycles
 SCF Done:  E(RB3LYP) =  -1049.00178750     A.U. after   12 cycles
 SCF Done:  E(RB3LYP) =  -1049.00183099     A.U. after   12 cycles
 SCF Done:  E(RB3LYP) =  -1049.00186554     A.U. after   10 cycles
 SCF Done:  E(RB3LYP) =  -1049.00185685     A.U. after   12 cycles
 SCF Done:  E(RB3LYP) =  -1049.00188238     A.U. after   11 cycles
 SCF Done:  E(RB3LYP) =  -1049.00190860     A.U. after   10 cycles
 SCF Done:  E(RB3LYP) =  -1049.00191329     A.U. after    9 cycles
 SCF Done:  E(RB3LYP) =  -1049.00191833     A.U. after   10 cycles
 SCF Done:  E(RB3LYP) =  -1049.00192304     A.U. after   10 cycles
 SCF Done:  E(RB3LYP) =  -1049.00192668     A.U. after   10 cycles
 SCF Done:  E(RB3LYP) =  -1049.00192879     A.U. after    9 cycles
 SCF Done:  E(RB3LYP) =  -1049.00192925     A.U. after    8 cycles
 SCF Done:  E(RB3LYP) =  -1049.00192939     A.U. after    7 cycles
 SCF Done:  E(RB3LYP) =  -1049.00192944     A.U. after    7 cycles
 Optimization completed.
    -- Stationary point found.
 Normal termination of Gaussian 09 at Fri Feb 16 20:19:50 2018.

 --------------------------------------------------------------------
 #N Geom=AllCheck Guess=TCheck SCRF=Check GenChk RB3LYP/6-31G(d) Freq
 --------------------------------------------------------------------

 Structure from the checkpoint file:  frag25-conf0.chk
 -----------------------------
 Optimization for frag25-conf0
 -----------------------------
 Charge =  0 Multiplicity = 1

                         Standard orientation:
 ---------------------------------------------------------------------
 Center     Atomic      Atomic             Coordinates (Angstroms)
 Number     Number       Type             X           Y           Z
 ---------------------------------------------------------------------
      1          6           0        1.649747   -0.500259   -0.428051
      2          6           0       -0.526847    2.503724    0.792965
      3          6           0        0.353341    2.104643   -1.545132
      4          6           0        3.992005   -1.136471   -0.261415
      5          6           0        2.948547   -0.090204    1.696582
      6          6           0       -2.838531   -2.143138   -0.140195
      7          6           0        0.395557    0.174719    0.165695
      8          6           0        0.480921    1.720994   -0.062755
      9          7           0       -0.733985   -0.513876   -0.467804
     10          7           0        2.787722   -0.565995    0.331427
     11          8           0        1.610255   -0.918607   -1.585445
     12          8           0       -3.149192    0.430206   -0.615852
     13          8           0       -2.130553   -0.269074    1.615797
     14         16           0       -2.278958   -0.457364    0.167843
     15          1           0       -1.554976    2.334807    0.458917
     16          1           0       -0.469650    2.225919    1.850993
     17          1           0       -0.324773    3.578243    0.710643
     18          1           0       -0.661799    1.908269   -1.909626
     19          1           0        1.058234    1.555246   -2.176620
     20          1           0        0.542174    3.176370   -1.671804
     21          1           0        4.795187   -0.388539   -0.290781
     22          1           0        3.759367   -1.463241   -1.273340
     23          1           0        4.337744   -1.991839    0.332935
     24          1           0        3.283595   -0.910502    2.344940
     25          1           0        2.019249    0.304836    2.101308
     26          1           0        3.705380    0.704770    1.738344
     27          1           0       -3.868586   -2.207057    0.218103
     28          1           0       -2.804181   -2.340967   -1.213615
     29          1           0       -2.193044   -2.833018    0.404166
     30          1           0        0.296914   -0.020603    1.234530
     31          1           0        1.489448    2.007811    0.271770
     32          1           0       -0.695635   -0.507827   -1.483865
 ---------------------------------------------------------------------

 SCF Done:  E(RB3LYP) =  -1049.00192944     A.U. after    1 cycles

 Isotropic polarizability for W=    0.000000      123.06 Bohr**3.
 End of Minotr Frequency-dependent properties file   721 does not exist.

                     1                      2                      3
                     A                      A                      A
 Frequencies --    27.0912                45.0639                49.7520
 Red. masses --     3.6061                 2.1189                 5.6009
 Frc consts  --     0.0016                 0.0025                 0.0082
 IR Inten    --     0.1589                 2.3339                 7.1887

                     4                      5                      6
                     A                      A                      A
 Frequencies --    68.3438                78.9907                91.1093
 Red. masses --     2.3027                 1.9151                 3.2263
 Frc consts  --     0.0063                 0.0070                 0.0158
 IR Inten    --     0.1267                 2.6432                 1.5933

                     7                      8                      9
                     A                      A                      A
 Frequencies --   115.5183               133.2820               176.8399
 Red. masses --     2.9328                 1.2179                 3.7394
 Frc consts  --     0.0231                 0.0127                 0.0689
 IR Inten    --    10.5758                 0.3222                 0.7721

                    10                     11                     12
                     A                      A                      A
 Frequencies --   213.3528               218.0253               234.2078
 Red. masses --     1.2234                 4.2665                 3.4583
 Frc consts  --     0.0328                 0.1195                 0.1118
 IR Inten    --     0.0705                 0.5941                 0.9202

                    13                     14                     15
                     A                      A                      A
 Frequencies --   240.1304               253.2844               258.5005
 Red. masses --     1.5438                 1.7052                 2.5055
 Frc consts  --     0.0524                 0.0645                 0.0986
 IR Inten    --     1.3431                 0.9015                 6.5888

                    16                     17                     18
                     A                      A                      A
 Frequencies --   275.7191               302.2688               320.7507
 Red. masses --     1.0489                 3.2550                 3.0834
 Frc consts  --     0.0470                 0.1752                 0.1869
 IR Inten    --     0.3706                 6.4010                 0.9868

                    19                     20                     21
                     A                      A                      A
 Frequencies --   333.3090               377.9855               404.5813
 Red. masses --     3.4779                 2.5904                 2.9006
 Frc consts  --     0.2276                 0.2181                 0.2797
 IR Inten    --     5.3536                45.6298                 2.0103

                    22                     23                     24
                     A                      A                      A
 Frequencies --   409.3146               451.6653               486.9157
 Red. masses --     2.5957                 2.8652                 7.4185
 Frc consts  --     0.2562                 0.3444                 1.0363
 IR Inten    --     1.3820                 2.4799                32.8059

                    25                     26                     27
                     A                      A                      A
 Frequencies --   507.9141               564.6952               615.4007
 Red. masses --     6.1136                 2.6209                 2.4077
 Frc consts  --     0.9292                 0.4924                 0.5372
 IR Inten    --    66.8127                77.3445                20.2624

                    28                     29                     30
                     A                      A                      A
 Frequencies --   638.4719               697.8789               741.7401
 Red. masses --     4.1287                 5.6474                 5.9764
 Frc consts  --     0.9916                 1.6205                 1.9373
 IR Inten    --    17.4044                 7.1415                30.3351

                    31                     32                     33
                     A                      A                      A
 Frequencies --   816.6354               848.2757               899.2856
 Red. masses --     4.0430                 3.8789                 2.9996
 Frc consts  --     1.5886                 1.6445                 1.4292
 IR Inten    --    49.6402                25.1117                28.1349

                    34                     35                     36
                     A                      A                      A
 Frequencies --   946.2158               955.5249               977.8007
 Red. masses --     1.4214                 1.8676                 1.5886
 Frc consts  --     0.7498                 1.0046                 0.8949
 IR Inten    --     7.9983                 4.9246                 2.2391

                    37                     38                     39
                     A                      A                      A
 Frequencies --   989.7487               999.5079              1000.9883
 Red. masses --     2.2689                 1.4205                 1.4929
 Frc consts  --     1.3095                 0.8361                 0.8813
 IR Inten    --    13.7196                 9.0766                65.1987

                    40                     41                     42
                     A                      A                      A
 Frequencies --  1076.7247              1086.7416              1119.7969
 Red. masses --     2.2353                 1.3740                 2.6789
 Frc consts  --     1.5269                 0.9561                 1.9792
 IR Inten    --    72.2310                 5.4298               155.8256

                    43                     44                     45
                     A                      A                      A
 Frequencies --  1130.2143              1138.2186              1147.8023
 Red. masses --     3.2936                 1.2259                 2.3622
 Frc consts  --     2.4788                 0.9358                 1.8336
 IR Inten    --    88.2754                 0.7551                84.7396

                    46                     47                     48
                     A                      A                      A
 Frequencies --  1186.3407              1197.4899              1221.9221
 Red. masses --     1.3928                 2.2500                 1.9478
 Frc consts  --     1.1550                 1.9009                 1.7135
 IR Inten    --     0.5531                18.6473                 2.4550

                    49                     50                     51
                     A                      A                      A
 Frequencies --  1274.9419              1300.0039              1301.6795
 Red. masses --     2.7462                 1.6830                 2.4024
 Frc consts  --     2.6301                 1.6758                 2.3983
 IR Inten    --    14.1068                33.2997                81.5703

                    52                     53                     54
                     A                      A                      A
 Frequencies --  1328.0294              1378.3513              1380.3797
 Red. masses --     2.2906                 1.4530                 1.2939
 Frc consts  --     2.3802                 1.6264                 1.4526
 IR Inten    --   125.0937                18.7834                 4.5968

                    55                     56                     57
                     A                      A                      A
 Frequencies --  1384.7111              1434.7193              1439.9814
 Red. masses --     1.2798                 1.2711                 1.8891
 Frc consts  --     1.4458                 1.5416                 2.3079
 IR Inten    --    12.8085                37.2547               198.4653

                    58                     59                     60
                     A                      A                      A
 Frequencies --  1450.9056              1457.5234              1476.0177
 Red. masses --     1.1634                 1.2671                 1.4213
 Frc consts  --     1.4430                 1.5860                 1.8244
 IR Inten    --     6.9791                 7.0193                17.0155

                    61                     62                     63
                     A                      A                      A
 Frequencies --  1484.2620              1489.0185              1502.5203
 Red. masses --     1.0493                 1.1044                 1.1636
 Frc consts  --     1.3620                 1.4427                 1.5477
 IR Inten    --     4.1482                 6.2045                14.8447

                    64                     65                     66
                     A                      A                      A
 Frequencies --  1511.0843              1514.3946              1530.6951
 Red. masses --     1.0424                 1.0436                 1.0622
 Frc consts  --     1.4023                 1.4102                 1.4663
 IR Inten    --     2.6354                 3.2865                 8.2080

                    67                     68                     69
                     A                      A                      A
 Frequencies --  1532.3003              1532.4910              1538.8920
 Red. masses --     1.0444                 1.0545                 1.0458
 Frc consts  --     1.4448                 1.4592                 1.4592
 IR Inten    --    16.1804                 9.5478                 1.8897

                    70                     71                     72
                     A                      A                      A
 Frequencies --  1549.8906              1566.6301              1737.7534
 Red. masses --     1.0521                 1.2427                 9.1560
 Frc consts  --     1.4890                 1.7970                16.2904
 IR Inten    --     6.5597                28.8803               265.1216

                    73                     74                     75
                     A                      A                      A
 Frequencies --  3012.6278              3031.3880              3039.1785
 Red. masses --     1.0829                 1.0407                 1.0404
 Frc consts  --     5.7907                 5.6343                 5.6617
 IR Inten    --    35.2468                24.9844                89.6269

                    76                     77                     78
                     A                      A                      A
 Frequencies --  3051.3217              3055.5313              3076.1404
 Red. masses --     1.0365                 1.0369                 1.1042
 Frc consts  --     5.6860                 5.7037                 6.1564
 IR Inten    --    22.1596                20.6512                37.8732

                    79                     80                     81
                     A                      A                      A
 Frequencies --  3085.2660              3086.8150              3114.0440
 Red. masses --     1.1049                 1.0297                 1.1018
 Frc consts  --     6.1964                 5.7807                 6.2949
 IR Inten    --    23.9449                 0.6792                 6.3409

                    82                     83                     84
                     A                      A                      A
 Frequencies --  3117.5640              3130.1763              3135.2684
 Red. masses --     1.1018                 1.0850                 1.1024
 Frc consts  --     6.3092                 6.2638                 6.3848
 IR Inten    --    47.6801                12.5931                14.5001

                    85                     86                     87
                     A                      A                      A
 Frequencies --  3139.6523              3181.7460              3197.3805
 Red. masses --     1.1010                 1.1063                 1.0951
 Frc consts  --     6.3946                 6.5987                 6.5964
 IR Inten    --    17.5935                 1.1433                 1.4237

                    88                     89                     90
                     A                      A                      A
 Frequencies --  3198.9043              3199.1296              3557.0636
 Red. masses --     1.0937                 1.1079                 1.0746
 Frc consts  --     6.5938                 6.6807                 8.0110
 IR Inten    --    10.4152                 0.9529                40.2299

 - Thermochemistry -
 -------------------
 Temperature   298.150 Kelvin.  Pressure   1.00000 Atm.
 Atom     1 has atomic number  6 and mass  12.00000

 Molecular mass:   222.10381 amu.
 Principal axes and moments of inertia in atomic units:
                           1         2         3
     Eigenvalues --  1943.065334689.015875178.49531
           X            0.99987   0.00717   0.01466
           Y           -0.00707   0.99995  -0.00690
           Z           -0.01471   0.00680   0.99987
 This molecule is an asymmetric top.
 Rotational symmetry number  1.
 Warning -- assumption of classical behavior for rotation
           may cause significant error
 Rotational temperatures (Kelvin)      0.04458     0.01847     0.01673
 Rotational constants (GHZ):           0.92881     0.38489     0.34851
 Zero-point vibrational energy     715233.5 (Joules/Mol)
                                  170.94492 (Kcal/Mol)
 Warning -- explicit consideration of  27 degrees of freedom as
           vibrations may cause significant error
 Vibrational temperatures:     38.98    64.84    71.58    98.33   113.65
          (Kelvin)            131.09   166.20   191.76   254.43   306.97
                              313.69   336.97   345.49   364.42   371.92
                              396.70   434.90   461.49   479.56   543.84
                              582.10   588.91   649.84   700.56   730.77
                              812.47   885.42   918.62  1004.09  1067.20
                             1174.95  1220.48  1293.87  1361.39  1374.79
                             1406.84  1424.03  1438.07  1440.20  1549.16
                             1563.58  1611.14  1626.12  1637.64  1651.43
                             1706.88  1722.92  1758.07  1834.35  1870.41
                             1872.82  1910.74  1983.14  1986.06  1992.29
                             2064.24  2071.81  2087.53  2097.05  2123.66
                             2135.52  2142.36  2161.79  2174.11  2178.87
                             2202.33  2204.64  2204.91  2214.12  2229.94
                             2254.03  2500.24  4334.49  4361.49  4372.69
                             4390.17  4396.22  4425.87  4439.00  4441.23
                             4480.41  4485.47  4503.62  4510.95  4517.25
                             4577.82  4600.31  4602.50  4602.83  5117.81

 Zero-point correction=                           0.272418 (Hartree/Particle)
 Thermal correction to Energy=                    0.289908
 Thermal correction to Enthalpy=                  0.290852
 Thermal correction to Gibbs Free Energy=         0.226321
 Sum of electronic and zero-point Energies=          -1048.729511
 Sum of electronic and thermal Energies=             -1048.712021
 Sum of electronic and thermal Enthalpies=           -1048.711077
 Sum of electronic and thermal Free Energies=        -1048.775608

                     E (Thermal)             CV                S
                      KCal/Mol        Cal/Mol-Kelvin    Cal/Mol-Kelvin
 Total                  181.920             62.290            135.816
 Electronic               0.000              0.000              0.000
 Translational            0.889              2.981             42.097
 Rotational               0.889              2.981             32.223
 Vibrational            180.143             56.329             61.497
 Vibration     1          0.593              1.984              6.032
 Vibration     2          0.595              1.979              5.023
 Vibration     3          0.595              1.978              4.827
 Vibration     4          0.598              1.969              4.201
 Vibration     5          0.600              1.963              3.916
 Vibration     6          0.602              1.956              3.636
 Vibration     7          0.608              1.937              3.174
 Vibration     8          0.613              1.920              2.898
 Vibration     9          0.628              1.871              2.362
 Vibration    10          0.644              1.821              2.015
 Vibration    11          0.646              1.814              1.975
 Vibration    12          0.654              1.789              1.846
 Vibration    13          0.657              1.779              1.802
 Vibration    14          0.664              1.757              1.708
 Vibration    15          0.667              1.748              1.672
 Vibration    16          0.677              1.718              1.560
 Vibration    17          0.694              1.669              1.404
 Vibration    18          0.706              1.634              1.306
 Vibration    19          0.715              1.609              1.244
 Vibration    20          0.748              1.517              1.047
 Vibration    21          0.770              1.460              0.946
 Vibration    22          0.774              1.450              0.929
 Vibration    23          0.810              1.357              0.791
 Vibration    24          0.843              1.279              0.692
 Vibration    25          0.863              1.232              0.639
 Vibration    26          0.921              1.108              0.515
 Vibration    27          0.975              0.999              0.424

 Normal termination of Gaussian 09 at Fri Feb 16 20:57:27 2018.
