 Gaussian 09, Revision C.01,
 Gaussian 09:  AM64L-G09RevC.01 23-Sep-2011

 ----------------------------------------------------------------------
 #HF/6-31G* Geom=AllCheck Guess=Read Pop=(MK,ReadRadii) Integral=(Grid=
 UltraFine) iop(6/33=2)
 ----------------------------------------------------------------------

 Structure from the checkpoint file:  frag25-conf0.chk
 -----------------------------
 Optimization for frag25-conf0
 -----------------------------
 Charge =  0 Multiplicity = 1

                         Standard orientation:
 ---------------------------------------------------------------------
 Center     Atomic      Atomic             Coordinates (Angstroms)
 Number     Number       Type             X           Y           Z
 ---------------------------------------------------------------------
      1          6           0        1.649747   -0.500259   -0.428051
      2          6           0       -0.526847    2.503724    0.792965
      3          6           0        0.353341    2.104643   -1.545132
      4          6           0        3.992005   -1.136471   -0.261415
      5          6           0        2.948547   -0.090204    1.696582
      6          6           0       -2.838531   -2.143138   -0.140195
      7          6           0        0.395557    0.174719    0.165695
      8          6           0        0.480921    1.720994   -0.062755
      9          7           0       -0.733985   -0.513876   -0.467804
     10          7           0        2.787722   -0.565995    0.331427
     11          8           0        1.610255   -0.918607   -1.585445
     12          8           0       -3.149192    0.430206   -0.615852
     13          8           0       -2.130553   -0.269074    1.615797
     14         16           0       -2.278958   -0.457364    0.167843
     15          1           0       -1.554976    2.334807    0.458917
     16          1           0       -0.469650    2.225919    1.850993
     17          1           0       -0.324773    3.578243    0.710643
     18          1           0       -0.661799    1.908269   -1.909626
     19          1           0        1.058234    1.555246   -2.176620
     20          1           0        0.542174    3.176370   -1.671804
     21          1           0        4.795187   -0.388539   -0.290781
     22          1           0        3.759367   -1.463241   -1.273340
     23          1           0        4.337744   -1.991839    0.332935
     24          1           0        3.283595   -0.910502    2.344940
     25          1           0        2.019249    0.304836    2.101308
     26          1           0        3.705380    0.704770    1.738344
     27          1           0       -3.868586   -2.207057    0.218103
     28          1           0       -2.804181   -2.340967   -1.213615
     29          1           0       -2.193044   -2.833018    0.404166
     30          1           0        0.296914   -0.020603    1.234530
     31          1           0        1.489448    2.007811    0.271770
     32          1           0       -0.695635   -0.507827   -1.483865
 ---------------------------------------------------------------------

 SCF Done:  E(RHF) =  -1044.34568759     A.U. after   13 cycles

 The electronic state is 1-A.
 Alpha  occ. eigenvalues --  -92.21226 -20.55610 -20.55387 -20.53364 -15.60755
 Alpha  occ. eigenvalues --  -15.60233 -11.36611 -11.29666 -11.28278 -11.27647
 Alpha  occ. eigenvalues --  -11.26427 -11.24708 -11.21568 -11.21350  -9.18287
 Alpha  occ. eigenvalues --   -6.86889  -6.86857  -6.86769  -1.45102  -1.38818
 Alpha  occ. eigenvalues --   -1.33191  -1.25436  -1.23535  -1.08863  -1.03460
 Alpha  occ. eigenvalues --   -0.99184  -0.97804  -0.93094  -0.92340  -0.83966
 Alpha  occ. eigenvalues --   -0.78799  -0.75754  -0.73413  -0.68801  -0.67754
 Alpha  occ. eigenvalues --   -0.67167  -0.66130  -0.65282  -0.63474  -0.61743
 Alpha  occ. eigenvalues --   -0.60340  -0.59877  -0.59246  -0.58223  -0.56950
 Alpha  occ. eigenvalues --   -0.56831  -0.54498  -0.53822  -0.53661  -0.52726
 Alpha  occ. eigenvalues --   -0.51853  -0.50037  -0.48862  -0.48112  -0.47451
 Alpha  occ. eigenvalues --   -0.46396  -0.45345  -0.43068  -0.40436  -0.37924
 Alpha virt. eigenvalues --    0.18026   0.20514   0.21491   0.23718   0.24257
 Alpha virt. eigenvalues --    0.24728   0.26156   0.27049   0.27885   0.28841
 Alpha virt. eigenvalues --    0.29140   0.29654   0.29952   0.30324   0.31174

 Mulliken atomic charges:
              1
     1  C    0.827532
     2  C   -0.497986
     3  C   -0.507372
     4  C   -0.297975
     5  C   -0.286376
     6  C   -0.700496
     7  C   -0.075697
     8  C   -0.172517
     9  N   -0.910983
    10  N   -0.674457
    11  O   -0.653539
    12  O   -0.691956
    13  O   -0.709980
    14  S    1.627370
    15  H    0.205238
    16  H    0.170926
    17  H    0.163878
    18  H    0.178120
    19  H    0.192750
    20  H    0.167762
    21  H    0.166441
    22  H    0.241387
    23  H    0.167711
    24  H    0.182266
    25  H    0.191285
    26  H    0.178279
    27  H    0.231897
    28  H    0.221078
    29  H    0.228495
    30  H    0.240657
    31  H    0.167098
    32  H    0.429165
 Sum of Mulliken atomic charges =   0.00000

 Dipole moment (field-independent basis, Debye):
    X=              3.7992    Y=             -1.7084    Z=              1.1930  Tot=              4.3331
 Quadrupole moment (field-independent basis, Debye-Ang):
   XX=            -91.5131   YY=            -88.4650   ZZ=            -99.7842
   XY=             11.0611   XZ=              9.6606   YZ=             -0.7576

 Normal termination of Gaussian 09 at Sat Feb 17 21:01:30 2018.
