 Gaussian 09, Revision C.01,
 Gaussian 09:  AM64L-G09RevC.01 23-Sep-2011

 ---------------------------------------------------------
 #B3LYP/6-31G* Integral=(Grid=UltraFine) freq Opt pop=none
 ---------------------------------------------------------

 99/9=1/99;
 ----------------------------
 Optimization for frag1-conf0
 ----------------------------
 Charge =  0 Multiplicity = 1

 SCF Done:  E(RB3LYP) =  -574.447872032     A.U. after   14 cycles
 SCF Done:  E(RB3LYP) =  -574.452386787     A.U. after   14 cycles
 SCF Done:  E(RB3LYP) =  -574.452681475     A.U. after   11 cycles
 SCF Done:  E(RB3LYP) =  -574.452548761     A.U. after   12 cycles
 SCF Done:  E(RB3LYP) =  -574.452729285     A.U. after   11 cycles
 SCF Done:  E(RB3LYP) =  -574.452745496     A.U. after   11 cycles
 SCF Done:  E(RB3LYP) =  -574.452751264     A.U. after    9 cycles
 SCF Done:  E(RB3LYP) =  -574.452753976     A.U. after    9 cycles
 SCF Done:  E(RB3LYP) =  -574.452757136     A.U. after   10 cycles
 SCF Done:  E(RB3LYP) =  -574.452759735     A.U. after    9 cycles
 SCF Done:  E(RB3LYP) =  -574.452773278     A.U. after   11 cycles
 SCF Done:  E(RB3LYP) =  -574.452780502     A.U. after    9 cycles
 SCF Done:  E(RB3LYP) =  -574.452785051     A.U. after    9 cycles
 SCF Done:  E(RB3LYP) =  -574.452785733     A.U. after    9 cycles
 SCF Done:  E(RB3LYP) =  -574.452786120     A.U. after    8 cycles
 SCF Done:  E(RB3LYP) =  -574.452786294     A.U. after    8 cycles
 SCF Done:  E(RB3LYP) =  -574.452786414     A.U. after    8 cycles
 SCF Done:  E(RB3LYP) =  -574.452786479     A.U. after    7 cycles
 SCF Done:  E(RB3LYP) =  -574.452786478     A.U. after    7 cycles
 Optimization completed.
    -- Stationary point found.
 Normal termination of Gaussian 09 at Mon Feb 26 22:30:52 2018.

 --------------------------------------------------------------------
 #N Geom=AllCheck Guess=TCheck SCRF=Check GenChk RB3LYP/6-31G(d) Freq
 --------------------------------------------------------------------

 Structure from the checkpoint file:  frag1-conf0.chk
 ----------------------------
 Optimization for frag1-conf0
 ----------------------------
 Charge =  0 Multiplicity = 1

                         Standard orientation:
 ---------------------------------------------------------------------
 Center     Atomic      Atomic             Coordinates (Angstroms)
 Number     Number       Type             X           Y           Z
 ---------------------------------------------------------------------
      1          6           0        2.175867   -0.772859    0.016983
      2          6           0       -0.953397    0.229069    0.453462
      3          6           0        1.547299   -2.064842   -0.499114
      4          6           0       -0.185231    1.722697   -1.445315
      5          6           0       -3.202835   -0.397354    1.152660
      6          6           0       -2.634968   -0.664260   -1.215326
      7          6           0        1.992540    1.609771    0.494540
      8          6           0        0.101031    0.421606   -0.671766
      9          7           0       -2.184427   -0.286096    0.114255
     10          7           0        1.456373    0.397635   -0.127494
     11          8           0        3.290657   -0.794131    0.526279
     12          8           0       -0.684440    0.551084    1.605870
     13          1           0        1.431744   -2.056426   -1.589932
     14          1           0        2.224056   -2.876344   -0.230196
     15          1           0        0.564278   -2.258266   -0.055549
     16          1           0       -0.204580    2.588394   -0.777961
     17          1           0        0.582945    1.885941   -2.207779
     18          1           0       -1.157471    1.665527   -1.944485
     19          1           0       -4.058920    0.251864    0.924393
     20          1           0       -2.762201   -0.098939    2.102228
     21          1           0       -3.562501   -1.431932    1.220405
     22          1           0       -3.055471   -1.677986   -1.192117
     23          1           0       -1.823127   -0.654588   -1.940136
     24          1           0       -3.421214    0.016553   -1.571988
     25          1           0        2.223690    2.373249   -0.257433
     26          1           0        2.913146    1.329246    1.003636
     27          1           0        1.277263    2.005667    1.218800
     28          1           0        0.033153   -0.401323   -1.383147
 ---------------------------------------------------------------------

 SCF Done:  E(RB3LYP) =  -574.452786478     A.U. after    1 cycles

 Isotropic polarizability for W=    0.000000      103.05 Bohr**3.
 End of Minotr Frequency-dependent properties file   721 does not exist.

                     1                      2                      3
                     A                      A                      A
 Frequencies --    36.1265                38.9909                69.2861
 Red. masses --     4.7573                 3.9499                 1.6529
 Frc consts  --     0.0037                 0.0035                 0.0047
 IR Inten    --     1.6903                 0.7008                 0.0621

                     4                      5                      6
                     A                      A                      A
 Frequencies --    82.7026               100.6444               139.1018
 Red. masses --     4.3012                 1.8381                 1.1011
 Frc consts  --     0.0173                 0.0110                 0.0126
 IR Inten    --     1.9582                 0.4431                 0.0665

                     7                      8                      9
                     A                      A                      A
 Frequencies --   152.1370               171.2917               196.2466
 Red. masses --     1.1374                 2.6602                 1.3547
 Frc consts  --     0.0155                 0.0460                 0.0307
 IR Inten    --     0.7528                 4.1814                 0.1879

                    10                     11                     12
                     A                      A                      A
 Frequencies --   202.0803               238.2126               253.2671
 Red. masses --     1.7284                 1.9803                 1.6154
 Frc consts  --     0.0416                 0.0662                 0.0611
 IR Inten    --     1.8910                 0.6809                 6.1094

                    13                     14                     15
                     A                      A                      A
 Frequencies --   260.6385               308.0968               337.8355
 Red. masses --     1.6517                 3.2641                 3.4522
 Frc consts  --     0.0661                 0.1826                 0.2321
 IR Inten    --     3.3861                 0.6391                 2.1353

                    16                     17                     18
                     A                      A                      A
 Frequencies --   369.3038               398.5678               426.9559
 Red. masses --     3.3129                 4.4086                 3.1955
 Frc consts  --     0.2662                 0.4126                 0.3432
 IR Inten    --     1.6030                13.6670                 6.3606

                    19                     20                     21
                     A                      A                      A
 Frequencies --   451.4429               491.6084               595.1523
 Red. masses --     3.5341                 3.4921                 2.8624
 Frc consts  --     0.4244                 0.4972                 0.5974
 IR Inten    --     6.3981                 9.0999                 6.0479

                    22                     23                     24
                     A                      A                      A
 Frequencies --   607.9065               632.8599               726.2664
 Red. masses --     4.3845                 4.0652                 6.2477
 Frc consts  --     0.9546                 0.9593                 1.9416
 IR Inten    --    17.3415                 6.2877                 4.6019

                    25                     26                     27
                     A                      A                      A
 Frequencies --   755.0130               783.3767               954.3672
 Red. masses --     3.1238                 2.8960                 3.0770
 Frc consts  --     1.0492                 1.0471                 1.6512
 IR Inten    --     0.2266                 2.7873                 2.0078

                    28                     29                     30
                     A                      A                      A
 Frequencies --   968.6689               985.7340              1040.6788
 Red. masses --     2.6518                 1.8097                 1.6531
 Frc consts  --     1.4660                 1.0360                 1.0548
 IR Inten    --     0.4431                11.9318                52.8285

                    31                     32                     33
                     A                      A                      A
 Frequencies --  1060.7861              1082.5710              1090.5117
 Red. masses --     1.7263                 1.5173                 1.5409
 Frc consts  --     1.1445                 1.0477                 1.0796
 IR Inten    --     4.8763                26.4342                16.4375

                    34                     35                     36
                     A                      A                      A
 Frequencies --  1109.3169              1137.8726              1138.8846
 Red. masses --     2.3389                 1.2273                 1.9606
 Frc consts  --     1.6958                 0.9362                 1.4983
 IR Inten    --    38.7246                 1.1353               151.3676

                    37                     38                     39
                     A                      A                      A
 Frequencies --  1163.1148              1185.5845              1195.0241
 Red. masses --     1.3259                 1.3684                 2.0468
 Frc consts  --     1.0568                 1.1332                 1.7221
 IR Inten    --     4.5740                 6.8711                58.3981

                    40                     41                     42
                     A                      A                      A
 Frequencies --  1279.6402              1296.3371              1326.8355
 Red. masses --     4.5202                 4.8792                 1.5186
 Frc consts  --     4.3609                 4.8310                 1.5752
 IR Inten    --    41.4396                34.2372                 2.3565

                    43                     44                     45
                     A                      A                      A
 Frequencies --  1371.7500              1410.2344              1423.8502
 Red. masses --     1.9948                 1.3019                 1.8527
 Frc consts  --     2.2116                 1.5255                 2.2130
 IR Inten    --   111.1094                21.5209               116.4797

                    46                     47                     48
                     A                      A                      A
 Frequencies --  1436.5331              1448.2910              1455.9678
 Red. masses --     1.3926                 1.2178                 1.3087
 Frc consts  --     1.6932                 1.5050                 1.6346
 IR Inten    --    38.5513                 9.3380                20.2916

                    49                     50                     51
                     A                      A                      A
 Frequencies --  1472.6664              1500.5959              1504.4273
 Red. masses --     1.6180                 1.1644                 1.0686
 Frc consts  --     2.0675                 1.5449                 1.4250
 IR Inten    --    88.7554                12.0694                 8.6238

                    52                     53                     54
                     A                      A                      A
 Frequencies --  1511.6388              1521.5557              1523.3944
 Red. masses --     1.0488                 1.0443                 1.0479
 Frc consts  --     1.4120                 1.4244                 1.4328
 IR Inten    --     3.8529                 5.7493                 7.0778

                    55                     56                     57
                     A                      A                      A
 Frequencies --  1529.2158              1531.7239              1533.2476
 Red. masses --     1.0622                 1.0736                 1.0511
 Frc consts  --     1.4635                 1.4841                 1.4558
 IR Inten    --    16.1941                13.0571                 8.0166

                    58                     59                     60
                     A                      A                      A
 Frequencies --  1542.2414              1545.6834              1564.7352
 Red. masses --     1.0745                 1.0505                 1.1784
 Frc consts  --     1.5057                 1.4787                 1.6999
 IR Inten    --     7.6244                10.1803                19.2148

                    61                     62                     63
                     A                      A                      A
 Frequencies --  1755.5764              1769.4972              3024.9970
 Red. masses --     9.9456                 9.3858                 1.0439
 Frc consts  --    18.0601                17.3149                 5.6279
 IR Inten    --   164.9872               412.1069                34.3574

                    64                     65                     66
                     A                      A                      A
 Frequencies --  3035.2439              3051.7830              3056.8043
 Red. masses --     1.0414                 1.0408                 1.0443
 Frc consts  --     5.6528                 5.7114                 5.7493
 IR Inten    --    82.9343                 8.0842                37.2833

                    67                     68                     69
                     A                      A                      A
 Frequencies --  3068.1271              3071.8840              3082.5737
 Red. masses --     1.0358                 1.1004                 1.1040
 Frc consts  --     5.7448                 6.1177                 6.1809
 IR Inten    --    29.3231                38.4260                26.4987

                    70                     71                     72
                     A                      A                      A
 Frequencies --  3113.0704              3125.9142              3135.6595
 Red. masses --     1.1002                 1.0858                 1.0990
 Frc consts  --     6.2818                 6.2510                 6.3666
 IR Inten    --    13.4791                 7.7293                14.3244

                    73                     74                     75
                     A                      A                      A
 Frequencies --  3137.2097              3150.8217              3175.9709
 Red. masses --     1.0979                 1.1008                 1.0990
 Frc consts  --     6.3665                 6.4387                 6.5311
 IR Inten    --    24.8327                20.7109                 9.3822

                    76                     77                     78
                     A                      A                      A
 Frequencies --  3190.6168              3195.7590              3197.9511
 Red. masses --     1.0924                 1.1003                 1.0958
 Frc consts  --     6.5521                 6.6210                 6.6028
 IR Inten    --    15.4177                 0.7604                 1.9074

 - Thermochemistry -
 -------------------
 Temperature   298.150 Kelvin.  Pressure   1.00000 Atm.
 Atom     1 has atomic number  6 and mass  12.00000

 Molecular mass:   172.12118 amu.
 Principal axes and moments of inertia in atomic units:
                           1         2         3
     Eigenvalues --  1251.302363082.897753267.49723
           X            0.99980   0.01991   0.00200
           Y           -0.01991   0.99980  -0.00223
           Z           -0.00204   0.00219   1.00000
 This molecule is an asymmetric top.
 Rotational symmetry number  1.
 Warning -- assumption of classical behavior for rotation
           may cause significant error
 Rotational temperatures (Kelvin)      0.06922     0.02809     0.02651
 Rotational constants (GHZ):           1.44229     0.58540     0.55233
 Zero-point vibrational energy     640051.5 (Joules/Mol)
                                  152.97598 (Kcal/Mol)
 Warning -- explicit consideration of  22 degrees of freedom as
           vibrations may cause significant error
 Vibrational temperatures:     51.98    56.10    99.69   118.99   144.80
          (Kelvin)            200.14   218.89   246.45   282.35   290.75
                              342.73   364.39   375.00   443.28   486.07
                              531.35   573.45   614.29   649.52   707.31
                              856.29   874.64   910.54  1044.93  1086.29
                             1127.10  1373.12  1393.70  1418.25  1497.30
                             1526.23  1557.58  1569.00  1596.06  1637.14
                             1638.60  1673.46  1705.79  1719.37  1841.11
                             1865.14  1909.02  1973.64  2029.01  2048.60
                             2066.85  2083.77  2094.81  2118.84  2159.02
                             2164.53  2174.91  2189.18  2191.82  2200.20
                             2203.81  2206.00  2218.94  2223.89  2251.30
                             2525.88  2545.91  4352.29  4367.03  4390.83
                             4398.05  4414.34  4419.75  4435.13  4479.01
                             4497.49  4511.51  4513.74  4533.32  4569.51
                             4590.58  4597.98  4601.13

 Zero-point correction=                           0.243783 (Hartree/Particle)
 Thermal correction to Energy=                    0.258567
 Thermal correction to Enthalpy=                  0.259511
 Thermal correction to Gibbs Free Energy=         0.201524
 Sum of electronic and zero-point Energies=           -574.209004
 Sum of electronic and thermal Energies=              -574.194219
 Sum of electronic and thermal Enthalpies=            -574.193275
 Sum of electronic and thermal Free Energies=         -574.251263

                     E (Thermal)             CV                S
                      KCal/Mol        Cal/Mol-Kelvin    Cal/Mol-Kelvin
 Total                  162.253             51.786            122.046
 Electronic               0.000              0.000              0.000
 Translational            0.889              2.981             41.337
 Rotational               0.889              2.981             30.911
 Vibrational            160.476             45.824             49.797
 Vibration     1          0.594              1.982              5.461
 Vibration     2          0.594              1.981              5.310
 Vibration     3          0.598              1.969              4.174
 Vibration     4          0.600              1.961              3.826
 Vibration     5          0.604              1.949              3.442
 Vibration     6          0.615              1.914              2.816
 Vibration     7          0.619              1.900              2.645
 Vibration     8          0.626              1.878              2.421
 Vibration     9          0.636              1.845              2.168
 Vibration    10          0.639              1.837              2.114
 Vibration    11          0.656              1.782              1.816
 Vibration    12          0.664              1.757              1.708
 Vibration    13          0.669              1.745              1.657
 Vibration    14          0.698              1.658              1.373
 Vibration    15          0.718              1.600              1.222
 Vibration    16          0.742              1.535              1.083
 Vibration    17          0.765              1.473              0.968
 Vibration    18          0.789              1.412              0.869
 Vibration    19          0.810              1.358              0.791
 Vibration    20          0.847              1.269              0.679
 Vibration    21          0.953              1.042              0.458
 Vibration    22          0.967              1.015              0.436

 Normal termination of Gaussian 09 at Mon Feb 26 22:51:24 2018.
