 Gaussian 09, Revision C.01,
 Gaussian 09:  AM64L-G09RevC.01 23-Sep-2011

 ----------------------------------------------------------------------
 #HF/6-31G* Geom=AllCheck Guess=Read Pop=(MK,ReadRadii) Integral=(Grid=
 UltraFine) iop(6/33=2)
 ----------------------------------------------------------------------

 Structure from the checkpoint file:  frag1-conf0.chk
 ----------------------------
 Optimization for frag1-conf0
 ----------------------------
 Charge =  0 Multiplicity = 1

                         Standard orientation:
 ---------------------------------------------------------------------
 Center     Atomic      Atomic             Coordinates (Angstroms)
 Number     Number       Type             X           Y           Z
 ---------------------------------------------------------------------
      1          6           0        2.175867   -0.772859    0.016983
      2          6           0       -0.953397    0.229069    0.453462
      3          6           0        1.547299   -2.064842   -0.499114
      4          6           0       -0.185231    1.722697   -1.445315
      5          6           0       -3.202835   -0.397354    1.152660
      6          6           0       -2.634968   -0.664260   -1.215326
      7          6           0        1.992540    1.609771    0.494540
      8          6           0        0.101031    0.421606   -0.671766
      9          7           0       -2.184427   -0.286096    0.114255
     10          7           0        1.456373    0.397635   -0.127494
     11          8           0        3.290657   -0.794131    0.526279
     12          8           0       -0.684440    0.551084    1.605870
     13          1           0        1.431744   -2.056426   -1.589932
     14          1           0        2.224056   -2.876344   -0.230196
     15          1           0        0.564278   -2.258266   -0.055549
     16          1           0       -0.204580    2.588394   -0.777961
     17          1           0        0.582945    1.885941   -2.207779
     18          1           0       -1.157471    1.665527   -1.944485
     19          1           0       -4.058920    0.251864    0.924393
     20          1           0       -2.762201   -0.098939    2.102228
     21          1           0       -3.562501   -1.431932    1.220405
     22          1           0       -3.055471   -1.677986   -1.192117
     23          1           0       -1.823127   -0.654588   -1.940136
     24          1           0       -3.421214    0.016553   -1.571988
     25          1           0        2.223690    2.373249   -0.257433
     26          1           0        2.913146    1.329246    1.003636
     27          1           0        1.277263    2.005667    1.218800
     28          1           0        0.033153   -0.401323   -1.383147
 ---------------------------------------------------------------------

 SCF Done:  E(RHF) =  -570.888469102     A.U. after   13 cycles

 The electronic state is 1-A.
 Alpha  occ. eigenvalues --  -20.53008 -20.51419 -15.60483 -15.58511 -11.36058
 Alpha  occ. eigenvalues --  -11.34758 -11.29799 -11.28605 -11.26259 -11.24529
 Alpha  occ. eigenvalues --  -11.23750 -11.23685  -1.38502  -1.36559  -1.25137
 Alpha  occ. eigenvalues --   -1.23742  -1.05294  -1.01007  -0.98424  -0.95249
 Alpha  occ. eigenvalues --   -0.92541  -0.87190  -0.77016  -0.72396  -0.71621
 Alpha  occ. eigenvalues --   -0.68104  -0.66461  -0.65203  -0.63356  -0.62030
 Alpha  occ. eigenvalues --   -0.60223  -0.58705  -0.57698  -0.57547  -0.56926
 Alpha  occ. eigenvalues --   -0.55876  -0.55562  -0.54410  -0.53971  -0.53058
 Alpha  occ. eigenvalues --   -0.51487  -0.50584  -0.49552  -0.42688  -0.40776
 Alpha  occ. eigenvalues --   -0.37925  -0.35987
 Alpha virt. eigenvalues --    0.17547   0.19785   0.20161   0.23455   0.24916
 Alpha virt. eigenvalues --    0.26560   0.27505   0.28982   0.29462   0.30598
 Alpha virt. eigenvalues --    0.30944   0.31537   0.32011   0.32604   0.32683

 Mulliken atomic charges:
              1
     1  C    0.776457
     2  C    0.792631
     3  C   -0.605358
     4  C   -0.496049
     5  C   -0.296951
     6  C   -0.283845
     7  C   -0.307959
     8  C   -0.067369
     9  N   -0.672312
    10  N   -0.656319
    11  O   -0.622178
    12  O   -0.622697
    13  H    0.182888
    14  H    0.225864
    15  H    0.186228
    16  H    0.196694
    17  H    0.192043
    18  H    0.175054
    19  H    0.163706
    20  H    0.243567
    21  H    0.165732
    22  H    0.182141
    23  H    0.180620
    24  H    0.176301
    25  H    0.153343
    26  H    0.237200
    27  H    0.203638
    28  H    0.196932
 Sum of Mulliken atomic charges =   0.00000

 Dipole moment (field-independent basis, Debye):
    X=             -5.4528    Y=             -0.2204    Z=             -4.5094  Tot=              7.0793
 Quadrupole moment (field-independent basis, Debye-Ang):
   XX=            -82.5506   YY=            -69.9742   ZZ=            -76.3251
   XY=              5.7000   XZ=             -1.8542   YZ=              0.1391

 Normal termination of Gaussian 09 at Mon Feb 26 23:17:38 2018.
