 Gaussian 09, Revision C.01,
 Gaussian 09:  AM64L-G09RevC.01 23-Sep-2011

 ----------------------------------------------------------------------
 #HF/6-31G* Geom=AllCheck Guess=Read Pop=(MK,ReadRadii) Integral=(Grid=
 UltraFine) iop(6/33=2)
 ----------------------------------------------------------------------

 Structure from the checkpoint file:  frag26-conf1.chk
 -----------------------------
 Optimization for frag26-conf1
 -----------------------------
 Charge =  0 Multiplicity = 1

                         Standard orientation:
 ---------------------------------------------------------------------
 Center     Atomic      Atomic             Coordinates (Angstroms)
 Number     Number       Type             X           Y           Z
 ---------------------------------------------------------------------
      1          6           0        0.439349    1.541852   -0.531843
      2          6           0       -4.363932   -1.683430   -0.415144
      3          6           0       -3.206896   -1.451407   -1.396272
      4          6           0       -4.416959   -0.572501    0.642733
      5          6           0       -1.858112   -1.300350   -0.673637
      6          6           0       -3.071600   -0.425624    1.368462
      7          6           0       -1.895116   -0.191052    0.396467
      8          6           0       -0.067891    3.878074   -0.977273
      9          6           0        0.444021    3.227830    1.335084
     10          6           0        2.765045   -2.758777    0.738007
     11          6           0       -0.589424   -0.045533    1.203458
     12          6           0        0.702520    0.383781    0.458244
     13          7           0        1.297412   -0.722717   -0.310657
     14          7           0        0.263277    2.804865   -0.045432
     15          8           0        0.349370    1.282585   -1.733998
     16          8           0        3.485797   -0.232091    0.989087
     17          8           0        3.553336   -1.309950   -1.331359
     18         16           0        2.916080   -1.133286   -0.023684
     19          1           0       -5.317868   -1.742085   -0.954782
     20          1           0       -4.227383   -2.653633    0.085760
     21          1           0       -3.149131   -2.274270   -2.120120
     22          1           0       -3.405243   -0.539989   -1.979470
     23          1           0       -4.670443    0.380079    0.154055
     24          1           0       -5.215107   -0.771348    1.369557
     25          1           0       -1.590357   -2.252958   -0.191812
     26          1           0       -1.075510   -1.087683   -1.406989
     27          1           0       -3.124431    0.397104    2.095060
     28          1           0       -2.874364   -1.339634    1.950256
     29          1           0       -2.084660    0.762266   -0.122150
     30          1           0       -0.987004    4.384255   -0.656561
     31          1           0       -0.208320    3.449437   -1.967833
     32          1           0        0.742407    4.617593   -1.011146
     33          1           0        1.178768    4.041752    1.380258
     34          1           0        0.805024    2.415054    1.961665
     35          1           0       -0.500980    3.598405    1.754177
     36          1           0        3.777349   -3.110809    0.949679
     37          1           0        2.193992   -2.665276    1.663474
     38          1           0        2.263650   -3.427703    0.037253
     39          1           0       -0.770050    0.687337    2.002123
     40          1           0       -0.363359   -0.995074    1.706485
     41          1           0        1.440044    0.684267    1.206396
     42          1           0        1.186831   -0.541073   -1.313324
 ---------------------------------------------------------------------

 SCF Done:  E(RHF) =  -1199.32393929     A.U. after   13 cycles

 The electronic state is 1-A.
 Alpha  occ. eigenvalues --  -92.20794 -20.55740 -20.55312 -20.53854 -15.60972
 Alpha  occ. eigenvalues --  -15.59888 -11.36854 -11.29617 -11.28327 -11.27521
 Alpha  occ. eigenvalues --  -11.26480 -11.24421 -11.23423 -11.22505 -11.22199
 Alpha  occ. eigenvalues --  -11.21884 -11.21701 -11.21583  -9.17929  -6.86515
 Alpha  occ. eigenvalues --   -6.86504  -6.86397  -1.44972  -1.39232  -1.33266
 Alpha  occ. eigenvalues --   -1.25714  -1.23028  -1.12398  -1.06377  -1.03253
 Alpha  occ. eigenvalues --   -1.00228  -0.99782  -0.98226  -0.94608  -0.88571
 Alpha  occ. eigenvalues --   -0.83340  -0.82696  -0.80341  -0.76026  -0.74628
 Alpha  occ. eigenvalues --   -0.73319  -0.69723  -0.67236  -0.67146  -0.66483
 Alpha  occ. eigenvalues --   -0.64958  -0.64269  -0.62651  -0.61864  -0.60614
 Alpha  occ. eigenvalues --   -0.60133  -0.59653  -0.59468  -0.58724  -0.57410
 Alpha  occ. eigenvalues --   -0.56831  -0.56182  -0.54964  -0.53992  -0.52670
 Alpha  occ. eigenvalues --   -0.52350  -0.51232  -0.50474  -0.49825  -0.48536
 Alpha  occ. eigenvalues --   -0.48305  -0.47624  -0.46332  -0.45554  -0.45176
 Alpha  occ. eigenvalues --   -0.44747  -0.42891  -0.42354  -0.40842  -0.38301
 Alpha virt. eigenvalues --    0.17546   0.20058   0.21490   0.22674   0.23935
 Alpha virt. eigenvalues --    0.24469   0.24989   0.25720   0.25961   0.27053
 Alpha virt. eigenvalues --    0.27394   0.28277   0.28410   0.29121   0.29794

 Mulliken atomic charges:
              1
     1  C    0.807416
     2  C   -0.309249
     3  C   -0.315141
     4  C   -0.310204
     5  C   -0.298642
     6  C   -0.306570
     7  C   -0.178231
     8  C   -0.298335
     9  C   -0.285480
    10  C   -0.693636
    11  C   -0.284105
    12  C   -0.108944
    13  N   -0.909073
    14  N   -0.667502
    15  O   -0.657652
    16  O   -0.706180
    17  O   -0.682410
    18  S    1.601304
    19  H    0.162448
    20  H    0.149147
    21  H    0.163936
    22  H    0.157131
    23  H    0.152128
    24  H    0.162036
    25  H    0.143679
    26  H    0.186260
    27  H    0.154894
    28  H    0.149543
    29  H    0.165397
    30  H    0.166567
    31  H    0.242001
    32  H    0.172936
    33  H    0.187078
    34  H    0.191043
    35  H    0.177014
    36  H    0.230415
    37  H    0.215165
    38  H    0.228664
    39  H    0.162960
    40  H    0.172878
    41  H    0.254848
    42  H    0.454464
 Sum of Mulliken atomic charges =   0.00000

 Dipole moment (field-independent basis, Debye):
    X=             -4.0290    Y=              0.7226    Z=              4.1866  Tot=              5.8552
 Quadrupole moment (field-independent basis, Debye-Ang):
   XX=           -138.6628   YY=            -99.1091   ZZ=           -125.3501
   XY=             -4.0748   XZ=              6.1475   YZ=             -0.9620

 1\1\GINC-NODE014\SP\RHF\6-31G(d)\C12H24N2O3S1\WULSDORT\17-Feb-2018\0\\
 #HF/6-31G* Geom=AllCheck Guess=Read Pop=(MK,ReadRadii) Integral=(Grid=
 UltraFine) iop(6/33=2)\\Optimization for frag26-conf1\\0,1\C,0,5.96035
 50675,-2.4656790619,-2.9506203395\C,0,2.9687368076,-7.2088003081,-4.37
 91139583\C,0,4.3501162277,-6.9059583043,-3.7830817562\C,0,2.3667856744
 ,-5.9568088456,-5.0319947423\C,0,4.3085034043,-5.7252702305,-2.7989673
 127\C,0,2.3198657381,-4.7793297508,-4.0473193109\C,0,3.7018717452,-4.4
 598353098,-3.4374864476\C,0,6.8482634805,-1.3470384578,-4.9188413476\C

 Normal termination of Gaussian 09 at Sat Feb 17 21:02:53 2018.
