 Gaussian 09, Revision C.01,
 Gaussian 09:  AM64L-G09RevC.01 23-Sep-2011

 ---------------------------------------------------------
 #B3LYP/6-31G* Integral=(Grid=UltraFine) freq Opt pop=none
 ---------------------------------------------------------

 99/9=1/99;
 -----------------------------
 Optimization for frag26-conf1
 -----------------------------
 Charge =  0 Multiplicity = 1

 SCF Done:  E(RB3LYP) =  -1205.03197252     A.U. after   15 cycles
 SCF Done:  E(RB3LYP) =  -1205.03868596     A.U. after   13 cycles
 SCF Done:  E(RB3LYP) =  -1205.03951946     A.U. after   13 cycles
 SCF Done:  E(RB3LYP) =  -1205.04047086     A.U. after   13 cycles
 SCF Done:  E(RB3LYP) =  -1205.04118248     A.U. after   13 cycles
 SCF Done:  E(RB3LYP) =  -1205.04206569     A.U. after   12 cycles
 SCF Done:  E(RB3LYP) =  -1205.04326640     A.U. after   13 cycles
 SCF Done:  E(RB3LYP) =  -1205.01306100     A.U. after   15 cycles
 SCF Done:  E(RB3LYP) =  -1205.04469684     A.U. after   15 cycles
 SCF Done:  E(RB3LYP) =  -1205.04660169     A.U. after   14 cycles
 SCF Done:  E(RB3LYP) =  -1205.05433401     A.U. after    9 cycles
 SCF Done:  E(RB3LYP) =  -1205.05433513     A.U. after    9 cycles
 SCF Done:  E(RB3LYP) =  -1205.05433542     A.U. after    9 cycles
 SCF Done:  E(RB3LYP) =  -1205.05433550     A.U. after    8 cycles
 SCF Done:  E(RB3LYP) =  -1205.05433549     A.U. after    7 cycles
 SCF Done:  E(RB3LYP) =  -1205.05433563     A.U. after    8 cycles
 SCF Done:  E(RB3LYP) =  -1205.05433574     A.U. after    7 cycles
 SCF Done:  E(RB3LYP) =  -1205.05433579     A.U. after    7 cycles
 SCF Done:  E(RB3LYP) =  -1205.05433580     A.U. after    6 cycles
 Optimization completed.
    -- Stationary point found.
 Normal termination of Gaussian 09 at Fri Feb 16 22:29:27 2018.

 --------------------------------------------------------------------
 #N Geom=AllCheck Guess=TCheck SCRF=Check GenChk RB3LYP/6-31G(d) Freq
 --------------------------------------------------------------------

 Structure from the checkpoint file:  frag26-conf1.chk
 -----------------------------
 Optimization for frag26-conf1
 -----------------------------
 Charge =  0 Multiplicity = 1

                         Standard orientation:
 ---------------------------------------------------------------------
 Center     Atomic      Atomic             Coordinates (Angstroms)
 Number     Number       Type             X           Y           Z
 ---------------------------------------------------------------------
      1          6           0        0.439349    1.541852   -0.531843
      2          6           0       -4.363932   -1.683430   -0.415144
      3          6           0       -3.206896   -1.451407   -1.396272
      4          6           0       -4.416959   -0.572501    0.642733
      5          6           0       -1.858112   -1.300350   -0.673637
      6          6           0       -3.071600   -0.425624    1.368462
      7          6           0       -1.895116   -0.191052    0.396467
      8          6           0       -0.067891    3.878074   -0.977273
      9          6           0        0.444021    3.227830    1.335084
     10          6           0        2.765045   -2.758777    0.738007
     11          6           0       -0.589424   -0.045533    1.203458
     12          6           0        0.702520    0.383781    0.458244
     13          7           0        1.297412   -0.722717   -0.310657
     14          7           0        0.263277    2.804865   -0.045432
     15          8           0        0.349370    1.282585   -1.733998
     16          8           0        3.485797   -0.232091    0.989087
     17          8           0        3.553336   -1.309950   -1.331359
     18         16           0        2.916080   -1.133286   -0.023684
     19          1           0       -5.317868   -1.742085   -0.954782
     20          1           0       -4.227383   -2.653633    0.085760
     21          1           0       -3.149131   -2.274270   -2.120120
     22          1           0       -3.405243   -0.539989   -1.979470
     23          1           0       -4.670443    0.380079    0.154055
     24          1           0       -5.215107   -0.771348    1.369557
     25          1           0       -1.590357   -2.252958   -0.191812
     26          1           0       -1.075510   -1.087683   -1.406989
     27          1           0       -3.124431    0.397104    2.095060
     28          1           0       -2.874364   -1.339634    1.950256
     29          1           0       -2.084660    0.762266   -0.122150
     30          1           0       -0.987004    4.384255   -0.656561
     31          1           0       -0.208320    3.449437   -1.967833
     32          1           0        0.742407    4.617593   -1.011146
     33          1           0        1.178768    4.041752    1.380258
     34          1           0        0.805024    2.415054    1.961665
     35          1           0       -0.500980    3.598405    1.754177
     36          1           0        3.777349   -3.110809    0.949679
     37          1           0        2.193992   -2.665276    1.663474
     38          1           0        2.263650   -3.427703    0.037253
     39          1           0       -0.770050    0.687337    2.002123
     40          1           0       -0.363359   -0.995074    1.706485
     41          1           0        1.440044    0.684267    1.206396
     42          1           0        1.186831   -0.541073   -1.313324
 ---------------------------------------------------------------------

 SCF Done:  E(RB3LYP) =  -1205.05433580     A.U. after    1 cycles

 Isotropic polarizability for W=    0.000000      162.35 Bohr**3.
 End of Minotr Frequency-dependent properties file   721 does not exist.

                     1                      2                      3
                     A                      A                      A
 Frequencies --    22.0394                28.6176                31.4837
 Red. masses --     4.7987                 3.6231                 4.6689
 Frc consts  --     0.0014                 0.0017                 0.0027
 IR Inten    --     3.1205                 2.7353                 1.7245

                     4                      5                      6
                     A                      A                      A
 Frequencies --    41.0699                61.6845                79.6335
 Red. masses --     2.7527                 2.3402                 4.0353
 Frc consts  --     0.0027                 0.0052                 0.0151
 IR Inten    --     1.1628                 0.9804                 0.1887

                     7                      8                      9
                     A                      A                      A
 Frequencies --    94.1154                96.8638               128.3888
 Red. masses --     2.5054                 2.1037                 1.3110
 Frc consts  --     0.0131                 0.0116                 0.0127
 IR Inten    --     1.4828                 0.9430                 0.0317

                    10                     11                     12
                     A                      A                      A
 Frequencies --   146.9703               159.7596               205.5087
 Red. masses --     2.4670                 4.4307                 2.9959
 Frc consts  --     0.0314                 0.0666                 0.0745
 IR Inten    --     0.8531                 4.2386                 7.6762

                    13                     14                     15
                     A                      A                      A
 Frequencies --   214.1769               222.9549               235.8614
 Red. masses --     3.4500                 1.1194                 2.0089
 Frc consts  --     0.0932                 0.0328                 0.0658
 IR Inten    --     0.1859                 0.0590                 0.0120

                    16                     17                     18
                     A                      A                      A
 Frequencies --   249.6128               256.4021               278.9341
 Red. masses --     2.5767                 2.6824                 3.8016
 Frc consts  --     0.0946                 0.1039                 0.1743
 IR Inten    --     2.7046                 2.7800                 0.9927

                    19                     20                     21
                     A                      A                      A
 Frequencies --   319.5303               333.8695               362.1249
 Red. masses --     2.6614                 2.2326                 3.1117
 Frc consts  --     0.1601                 0.1466                 0.2404
 IR Inten    --     0.4216                 1.1370                 4.8019

                    22                     23                     24
                     A                      A                      A
 Frequencies --   388.7373               412.1172               422.1614
 Red. masses --     4.7981                 3.7650                 2.2429
 Frc consts  --     0.4272                 0.3768                 0.2355
 IR Inten    --    18.2738                30.1081                 2.6037

                    25                     26                     27
                     A                      A                      A
 Frequencies --   432.6592               445.6643               473.7151
 Red. masses --     2.3143                 2.8410                 4.8576
 Frc consts  --     0.2552                 0.3325                 0.6422
 IR Inten    --     4.4870                 0.5547                13.1417

                    28                     29                     30
                     A                      A                      A
 Frequencies --   482.3073               515.5323               537.5373
 Red. masses --     5.1796                 4.1686                 2.4059
 Frc consts  --     0.7099                 0.6528                 0.4096
 IR Inten    --    32.9290                25.7500                 6.3019

                    31                     32                     33
                     A                      A                      A
 Frequencies --   545.6871               623.2768               677.7913
 Red. masses --     2.5698                 4.9505                 2.7365
 Frc consts  --     0.4509                 1.1331                 0.7407
 IR Inten    --    11.2408                 3.3383                87.2098

                    34                     35                     36
                     A                      A                      A
 Frequencies --   734.2792               745.0585               782.8660
 Red. masses --     3.4747                 6.1157                 2.5470
 Frc consts  --     1.1038                 2.0002                 0.9197
 IR Inten    --    32.8990                23.8091                14.0043

                    37                     38                     39
                     A                      A                      A
 Frequencies --   798.6730               823.8544               848.6285
 Red. masses --     1.6553                 2.7798                 2.8385
 Frc consts  --     0.6221                 1.1117                 1.2044
 IR Inten    --     9.7953                54.5070                 6.4978

                    40                     41                     42
                     A                      A                      A
 Frequencies --   860.5202               911.0059               919.2983
 Red. masses --     1.6071                 1.9237                 2.1437
 Frc consts  --     0.7011                 0.9406                 1.0674
 IR Inten    --     2.8619                13.4726                 5.8562

                    43                     44                     45
                     A                      A                      A
 Frequencies --   937.5470               955.4387               962.0923
 Red. masses --     1.5999                 2.1620                 2.8408
 Frc consts  --     0.8286                 1.1628                 1.5492
 IR Inten    --    13.6610                 2.3337                64.4337

                    46                     47                     48
                     A                      A                      A
 Frequencies --   987.8608               998.3042              1002.9675
 Red. masses --     1.7528                 1.4015                 1.6168
 Frc consts  --     1.0078                 0.8229                 0.9583
 IR Inten    --    16.7752                 7.4770                98.9425

                    49                     50                     51
                     A                      A                      A
 Frequencies --  1020.8764              1049.9884              1068.8006
 Red. masses --     2.3642                 1.8593                 1.7599
 Frc consts  --     1.4517                 1.2077                 1.1845
 IR Inten    --     6.8457                 0.1470                 2.2504

                    52                     53                     54
                     A                      A                      A
 Frequencies --  1086.9372              1087.8470              1103.5032
 Red. masses --     1.5691                 1.5510                 1.4080
 Frc consts  --     1.0922                 1.0814                 1.0102
 IR Inten    --     9.2954                 7.1959                 2.0706

                    55                     56                     57
                     A                      A                      A
 Frequencies --  1114.7317              1122.5402              1133.2919
 Red. masses --     2.2682                 5.7663                 2.8163
 Frc consts  --     1.6606                 4.2811                 2.1312
 IR Inten    --    43.2621               145.9481                18.5520

                    58                     59                     60
                     A                      A                      A
 Frequencies --  1138.7324              1160.0281              1177.9535
 Red. masses --     1.2807                 1.8835                 1.9594
 Frc consts  --     0.9785                 1.4933                 1.6019
 IR Inten    --     2.5818               100.9912                19.4416

                    61                     62                     63
                     A                      A                      A
 Frequencies --  1186.9416              1216.0955              1240.4482
 Red. masses --     1.4523                 1.4896                 1.4625
 Frc consts  --     1.2055                 1.2980                 1.3259
 IR Inten    --     3.1971                 4.3346                 2.7392

                    64                     65                     66
                     A                      A                      A
 Frequencies --  1280.4282              1293.2301              1301.3489
 Red. masses --     3.1072                 1.8528                 1.2230
 Frc consts  --     3.0015                 1.8257                 1.2202
 IR Inten    --    26.1217                53.8063                 4.6296

                    67                     68                     69
                     A                      A                      A
 Frequencies --  1304.0297              1315.9466              1321.5544
 Red. masses --     1.3026                 2.3040                 1.2650
 Frc consts  --     1.3051                 2.3507                 1.3017
 IR Inten    --     4.7585                51.0231                10.6541

                    70                     71                     72
                     A                      A                      A
 Frequencies --  1341.6225              1362.8418              1364.7079
 Red. masses --     1.5480                 1.2713                 1.2717
 Frc consts  --     1.6417                 1.3912                 1.3955
 IR Inten    --    54.7713                50.4059                16.1522

                    73                     74                     75
                     A                      A                      A
 Frequencies --  1381.6131              1387.4562              1395.9856
 Red. masses --     1.2203                 1.3759                 1.3543
 Frc consts  --     1.3724                 1.5606                 1.5550
 IR Inten    --    11.0610                 0.2185                 2.1623

                    76                     77                     78
                     A                      A                      A
 Frequencies --  1401.1258              1403.5409              1412.9852
 Red. masses --     1.4893                 1.5009                 1.4762
 Frc consts  --     1.7226                 1.7420                 1.7365
 IR Inten    --     0.4834                 6.7567                28.6159

                    79                     80                     81
                     A                      A                      A
 Frequencies --  1424.3605              1437.8672              1453.2048
 Red. masses --     1.5263                 1.7429                 1.1625
 Frc consts  --     1.8245                 2.1231                 1.4464
 IR Inten    --     3.6575               171.3857                 7.0774

                    82                     83                     84
                     A                      A                      A
 Frequencies --  1478.5449              1484.5931              1487.6360
 Red. masses --     1.4016                 1.0550                 1.1014
 Frc consts  --     1.8053                 1.3700                 1.4361
 IR Inten    --    15.8446                 6.4540                 1.3239

                    85                     86                     87
                     A                      A                      A
 Frequencies --  1498.9543              1502.0909              1507.9529
 Red. masses --     1.1931                 1.1186                 1.1079
 Frc consts  --     1.5794                 1.4871                 1.4843
 IR Inten    --    19.1215                 1.5275                 7.6979

                    88                     89                     90
                     A                      A                      A
 Frequencies --  1512.5235              1515.3504              1517.0823
 Red. masses --     1.0507                 1.0900                 1.0950
 Frc consts  --     1.4163                 1.4746                 1.4849
 IR Inten    --     2.3324                 0.9813                 3.0114

                    91                     92                     93
                     A                      A                      A
 Frequencies --  1520.7546              1528.4061              1533.2297
 Red. masses --     1.0819                 1.0620                 1.0504
 Frc consts  --     1.4743                 1.4617                 1.4548
 IR Inten    --    11.2618                13.4814                15.1897

                    94                     95                     96
                     A                      A                      A
 Frequencies --  1535.1719              1566.8364              1735.0068
 Red. masses --     1.0998                 1.2829                 8.5238
 Frc consts  --     1.5272                 1.8557                15.1177
 IR Inten    --     0.7125                27.4452               248.9758

                    97                     98                     99
                     A                      A                      A
 Frequencies --  3000.3098              3010.0689              3018.3914
 Red. masses --     1.0796                 1.0653                 1.0703
 Frc consts  --     5.7260                 5.6867                 5.7451
 IR Inten    --     4.5496                19.5019                18.9915

                   100                    101                    102
                     A                      A                      A
 Frequencies --  3020.3514              3022.5506              3028.4983
 Red. masses --     1.0690                 1.0650                 1.0631
 Frc consts  --     5.7455                 5.7327                 5.7449
 IR Inten    --    18.2859                 4.5594                27.4304

                   103                    104                    105
                     A                      A                      A
 Frequencies --  3032.3428              3035.1703              3042.5217
 Red. masses --     1.0616                 1.0419                 1.0403
 Frc consts  --     5.7515                 5.6550                 5.6739
 IR Inten    --    41.5551                39.2012                78.2481

                   106                    107                    108
                     A                      A                      A
 Frequencies --  3053.7880              3067.8890              3069.6592
 Red. masses --     1.0976                 1.0960                 1.0955
 Frc consts  --     6.0306                 6.0778                 6.0821
 IR Inten    --    44.3332                66.2452                54.7181

                   109                    110                    111
                     A                      A                      A
 Frequencies --  3072.2917              3075.7939              3082.2019
 Red. masses --     1.1023                 1.1029                 1.1039
 Frc consts  --     6.1300                 6.1477                 6.1787
 IR Inten    --    11.9897               123.9585                36.1792

                   112                    113                    114
                     A                      A                      A
 Frequencies --  3086.8453              3090.0598              3106.0210
 Red. masses --     1.0295                 1.1051                 1.0836
 Frc consts  --     5.7797                 6.2172                 6.1595
 IR Inten    --     0.7923                20.5018                13.7802

                   115                    116                    117
                     A                      A                      A
 Frequencies --  3118.5215              3184.7548              3195.5571
 Red. masses --     1.0915                 1.1066                 1.1078
 Frc consts  --     6.2539                 6.6129                 6.6651
 IR Inten    --    25.6438                 2.2473                 1.0884

                   118                    119                    120
                     A                      A                      A
 Frequencies --  3197.8753              3200.0269              3434.6764
 Red. masses --     1.0942                 1.0958                 1.0731
 Frc consts  --     6.5925                 6.6113                 7.4589
 IR Inten    --     6.7675                 4.2255               114.5567

 - Thermochemistry -
 -------------------
 Temperature   298.150 Kelvin.  Pressure   1.00000 Atm.
 Atom     1 has atomic number  6 and mass  12.00000

 Molecular mass:   276.15076 amu.
 Principal axes and moments of inertia in atomic units:
                           1         2         3
     Eigenvalues --  4059.019697232.439769391.92985
           X            0.99984   0.01706   0.00505
           Y           -0.01708   0.99985   0.00415
           Z           -0.00498  -0.00423   0.99998
 This molecule is an asymmetric top.
 Rotational symmetry number  1.
 Warning -- assumption of classical behavior for rotation
           may cause significant error
 Rotational temperatures (Kelvin)      0.02134     0.01198     0.00922
 Rotational constants (GHZ):           0.44462     0.24953     0.19216
 Zero-point vibrational energy     965733.6 (Joules/Mol)
                                  230.81587 (Kcal/Mol)
 Warning -- explicit consideration of  31 degrees of freedom as
           vibrations may cause significant error
 Vibrational temperatures:     31.71    41.17    45.30    59.09    88.75
          (Kelvin)            114.57   135.41   139.37   184.72   211.46
                              229.86   295.68   308.15   320.78   339.35
                              359.14   368.90   401.32   459.73   480.36
                              521.02   559.31   592.94   607.40   622.50
                              641.21   681.57   693.93   741.74   773.40
                              785.12   896.76   975.19  1056.46  1071.97
                             1126.37  1149.11  1185.34  1220.99  1238.10
                             1310.73  1322.66  1348.92  1374.66  1384.23
                             1421.31  1436.34  1443.04  1468.81  1510.70
                             1537.76  1563.86  1565.17  1587.69  1603.85
                             1615.08  1630.55  1638.38  1669.02  1694.81
                             1707.74  1749.69  1784.73  1842.25  1860.67
                             1872.35  1876.21  1893.35  1901.42  1930.29
                             1960.82  1963.51  1987.83  1996.24  2008.51
                             2015.91  2019.38  2032.97  2049.33  2068.77
                             2090.83  2127.29  2136.00  2140.37  2156.66
                             2161.17  2169.61  2176.18  2180.25  2182.74
                             2188.02  2199.03  2205.97  2208.77  2254.33
                             2496.28  4316.77  4330.81  4342.79  4345.61
                             4348.77  4357.33  4362.86  4366.93  4377.50
                             4393.71  4414.00  4416.55  4420.34  4425.38
                             4434.60  4441.28  4445.90  4468.87  4486.85
                             4582.15  4597.69  4601.02  4604.12  4941.73

 Zero-point correction=                           0.367829 (Hartree/Particle)
 Thermal correction to Energy=                    0.388133
 Thermal correction to Enthalpy=                  0.389078
 Thermal correction to Gibbs Free Energy=         0.316716
 Sum of electronic and zero-point Energies=          -1204.686507
 Sum of electronic and thermal Energies=             -1204.666202
 Sum of electronic and thermal Enthalpies=           -1204.665258
 Sum of electronic and thermal Free Energies=        -1204.737620

                     E (Thermal)             CV                S
                      KCal/Mol        Cal/Mol-Kelvin    Cal/Mol-Kelvin
 Total                  243.557             74.952            152.298
 Electronic               0.000              0.000              0.000
 Translational            0.889              2.981             42.746
 Rotational               0.889              2.981             33.977
 Vibrational            241.780             68.990             75.575
 Vibration     1          0.593              1.985              6.441
 Vibration     2          0.593              1.984              5.923
 Vibration     3          0.594              1.983              5.734
 Vibration     4          0.594              1.981              5.207
 Vibration     5          0.597              1.973              4.403
 Vibration     6          0.600              1.963              3.900
 Vibration     7          0.603              1.953              3.573
 Vibration     8          0.603              1.951              3.516
 Vibration     9          0.611              1.925              2.970
 Vibration    10          0.617              1.906              2.711
 Vibration    11          0.622              1.892              2.553
 Vibration    12          0.640              1.832              2.083
 Vibration    13          0.644              1.819              2.008
 Vibration    14          0.649              1.806              1.935
 Vibration    15          0.655              1.786              1.834
 Vibration    16          0.662              1.763              1.733
 Vibration    17          0.666              1.752              1.686
 Vibration    18          0.679              1.713              1.540
 Vibration    19          0.705              1.636              1.313
 Vibration    20          0.715              1.608              1.241
 Vibration    21          0.736              1.550              1.113
 Vibration    22          0.757              1.494              1.005
 Vibration    23          0.776              1.444              0.919
 Vibration    24          0.784              1.422              0.885
 Vibration    25          0.794              1.399              0.850
 Vibration    26          0.805              1.370              0.809
 Vibration    27          0.831              1.308              0.727
 Vibration    28          0.839              1.289              0.704
 Vibration    29          0.871              1.216              0.620
 Vibration    30          0.893              1.167              0.571
 Vibration    31          0.901              1.149              0.553

 Optimization completed.
    -- Stationary point found.
 Normal termination of Gaussian 09 at Fri Feb 16 23:56:35 2018.
