 Gaussian 09, Revision C.01,
 Gaussian 09:  AM64L-G09RevC.01 23-Sep-2011

 ----------------------------------------------------------------------
 #HF/6-31G* Geom=AllCheck Guess=Read Pop=(MK,ReadRadii) Integral=(Grid=
 UltraFine) iop(6/33=2)
 ----------------------------------------------------------------------

 Structure from the checkpoint file:  frag47-conf0.chk
 -----------------------------
 Optimization for frag47-conf0
 -----------------------------
 Charge =  0 Multiplicity = 1

                         Standard orientation:
 ---------------------------------------------------------------------
 Center     Atomic      Atomic             Coordinates (Angstroms)
 Number     Number       Type             X           Y           Z
 ---------------------------------------------------------------------
      1          6           0        2.154060    1.267889    0.000000
      2          6           0        3.024104    0.175827    0.000000
      3          6           0        0.778409    1.061144    0.000000
      4          6           0        2.462531   -1.099290    0.000000
      5          6           0        0.326540   -0.268152    0.000000
      6          6           0       -2.152789    0.170316    0.000000
      7          6           0       -3.458215   -0.612689    0.000000
      8          7           0        1.145716   -1.329428    0.000000
      9          7           0       -1.029390   -0.632125    0.000000
     10          8           0       -2.115275    1.391641    0.000000
     11          1           0        2.542687    2.282868    0.000000
     12          1           0        4.101528    0.305887    0.000000
     13          1           0        0.066340    1.874094    0.000000
     14          1           0        3.095688   -1.985068    0.000000
     15          1           0       -3.533073   -1.254364    0.885901
     16          1           0       -3.533070   -1.254368   -0.885899
     17          1           0       -4.286755    0.096192   -0.000003
     18          1           0       -1.153284   -1.637765    0.000000
 ---------------------------------------------------------------------

 SCF Done:  E(RHF) =  -453.521738914     A.U. after   14 cycles

 The electronic state is 1-A.
 Alpha  occ. eigenvalues --  -20.54074 -15.60805 -15.56666 -11.37064 -11.32534
 Alpha  occ. eigenvalues --  -11.27916 -11.25942 -11.24677 -11.23492 -11.23225
 Alpha  occ. eigenvalues --   -1.39079  -1.29172  -1.21531  -1.08335  -1.04027
 Alpha  occ. eigenvalues --   -0.99408  -0.87543  -0.85798  -0.78913  -0.72964
 Alpha  occ. eigenvalues --   -0.68677  -0.67311  -0.64259  -0.62792  -0.61490
 Alpha  occ. eigenvalues --   -0.59202  -0.56892  -0.56888  -0.56404  -0.53322
 Alpha  occ. eigenvalues --   -0.51830  -0.44305  -0.42877  -0.42388  -0.37716
 Alpha  occ. eigenvalues --   -0.31594
 Alpha virt. eigenvalues --    0.12131   0.13481   0.20525   0.22296   0.24721
 Alpha virt. eigenvalues --    0.27409   0.29734   0.30333   0.32031   0.32163
 Alpha virt. eigenvalues --    0.35488   0.36841   0.38028   0.42134   0.44625

 Mulliken atomic charges:
              1
     1  C   -0.138754
     2  C   -0.276319
     3  C   -0.279858
     4  C    0.081206
     5  C    0.606280
     6  C    0.765621
     7  C   -0.590168
     8  N   -0.620995
     9  N   -0.885020
    10  O   -0.603158
    11  H    0.219043
    12  H    0.209394
    13  H    0.284096
    14  H    0.206046
    15  H    0.195005
    16  H    0.195005
    17  H    0.221646
    18  H    0.410929
 Sum of Mulliken atomic charges =   0.00000

 Dipole moment (field-independent basis, Debye):
    X=              0.3523    Y=             -1.7980    Z=              0.0000  Tot=              1.8322
 Quadrupole moment (field-independent basis, Debye-Ang):
   XX=            -46.8647   YY=            -59.4012   ZZ=            -60.7484
   XY=              9.8470   XZ=              0.0000   YZ=              0.0000

 Normal termination of Gaussian 09 at Sat Feb 17 21:04:41 2018.
