 Gaussian 09, Revision C.01,
 Gaussian 09:  AM64L-G09RevC.01 23-Sep-2011

 ---------------------------------------------------------
 #B3LYP/6-31G* Integral=(Grid=UltraFine) freq Opt pop=none
 ---------------------------------------------------------

 99/9=1/99;
 -----------------------------
 Optimization for frag47-conf0
 -----------------------------
 Charge =  0 Multiplicity = 1

 SCF Done:  E(RB3LYP) =  -456.309853591     A.U. after   15 cycles
 SCF Done:  E(RB3LYP) =  -456.312197365     A.U. after   12 cycles
 SCF Done:  E(RB3LYP) =  -456.312339035     A.U. after   11 cycles
 SCF Done:  E(RB3LYP) =  -456.312366637     A.U. after   11 cycles
 SCF Done:  E(RB3LYP) =  -456.312369048     A.U. after    8 cycles
 Optimization completed.
    -- Stationary point found.
 Normal termination of Gaussian 09 at Fri Feb 16 20:53:59 2018.

 --------------------------------------------------------------------
 #N Geom=AllCheck Guess=TCheck SCRF=Check GenChk RB3LYP/6-31G(d) Freq
 --------------------------------------------------------------------

 Structure from the checkpoint file:  frag47-conf0.chk
 -----------------------------
 Optimization for frag47-conf0
 -----------------------------
 Charge =  0 Multiplicity = 1

                         Standard orientation:
 ---------------------------------------------------------------------
 Center     Atomic      Atomic             Coordinates (Angstroms)
 Number     Number       Type             X           Y           Z
 ---------------------------------------------------------------------
      1          6           0        2.154060    1.267889    0.000000
      2          6           0        3.024104    0.175827    0.000000
      3          6           0        0.778409    1.061144    0.000000
      4          6           0        2.462531   -1.099290    0.000000
      5          6           0        0.326540   -0.268152    0.000000
      6          6           0       -2.152789    0.170316    0.000000
      7          6           0       -3.458215   -0.612689    0.000000
      8          7           0        1.145716   -1.329428    0.000000
      9          7           0       -1.029390   -0.632125    0.000000
     10          8           0       -2.115275    1.391641    0.000000
     11          1           0        2.542687    2.282868    0.000000
     12          1           0        4.101528    0.305887    0.000000
     13          1           0        0.066340    1.874094    0.000000
     14          1           0        3.095688   -1.985068    0.000000
     15          1           0       -3.533073   -1.254364    0.885901
     16          1           0       -3.533070   -1.254368   -0.885899
     17          1           0       -4.286755    0.096192   -0.000003
     18          1           0       -1.153284   -1.637765    0.000000
 ---------------------------------------------------------------------

 SCF Done:  E(RB3LYP) =  -456.312369048     A.U. after    1 cycles

 Isotropic polarizability for W=    0.000000       86.30 Bohr**3.
 End of Minotr Frequency-dependent properties file   721 does not exist.

 ******    1 imaginary frequencies (negative Signs) ******

                     1                      2                      3
                     A                      A                      A
 Frequencies --   -42.6748                70.2449                87.7959
 Red. masses --     1.0901                 5.3517                 3.4602
 Frc consts  --     0.0012                 0.0156                 0.0157
 IR Inten    --     0.6947                 1.7994                 7.2668

                     4                      5                      6
                     A                      A                      A
 Frequencies --   171.6270               242.4411               335.6137
 Red. masses --     4.5741                 4.6782                 3.6144
 Frc consts  --     0.0794                 0.1620                 0.2399
 IR Inten    --     9.7907                 0.4381                 0.7954

                     7                      8                      9
                     A                      A                      A
 Frequencies --   360.7842               423.4748               524.1648
 Red. masses --     7.3775                 3.6869                 2.4916
 Frc consts  --     0.5658                 0.3896                 0.4033
 IR Inten    --     1.0285                 1.8755                17.9948

                    10                     11                     12
                     A                      A                      A
 Frequencies --   556.9308               586.6542               631.5132
 Red. masses --     4.2141                 2.7263                 7.2457
 Frc consts  --     0.7701                 0.5528                 1.7025
 IR Inten    --    19.6539                15.9886                 3.7152

                    13                     14                     15
                     A                      A                      A
 Frequencies --   664.0694               693.1772               762.5595
 Red. masses --     1.1958                 5.4885                 2.6716
 Frc consts  --     0.3107                 1.5538                 0.9153
 IR Inten    --    51.3105                 1.5688                 0.2805

                    16                     17                     18
                     A                      A                      A
 Frequencies --   796.1947               857.0279               909.9536
 Red. masses --     1.6610                 4.2834                 1.3230
 Frc consts  --     0.6204                 1.8537                 0.6454
 IR Inten    --    50.3323                 0.1727                 3.5093

                    19                     20                     21
                     A                      A                      A
 Frequencies --   974.4729               975.5352              1009.2357
 Red. masses --     1.3836                 5.9562                 5.8180
 Frc consts  --     0.7741                 3.3397                 3.4915
 IR Inten    --     0.5835                10.7976                 4.8013

                    22                     23                     24
                     A                      A                      A
 Frequencies --  1011.5180              1019.5107              1062.5618
 Red. masses --     1.2706                 1.7306                 1.7074
 Frc consts  --     0.7659                 1.0598                 1.1358
 IR Inten    --     0.4137                25.7368                 4.8984

                    25                     26                     27
                     A                      A                      A
 Frequencies --  1077.3971              1126.5570              1183.8092
 Red. masses --     2.0606                 1.5582                 1.1228
 Frc consts  --     1.4093                 1.1651                 0.9271
 IR Inten    --     5.0902                 3.3325                11.6784

                    28                     29                     30
                     A                      A                      A
 Frequencies --  1250.7168              1288.6944              1331.1313
 Red. masses --     2.0549                 3.5866                 1.7333
 Frc consts  --     1.8939                 3.5094                 1.8095
 IR Inten    --    84.8541                 0.8009                49.4419

                    31                     32                     33
                     A                      A                      A
 Frequencies --  1348.9712              1416.0697              1477.2042
 Red. masses --     3.5177                 1.2775                 2.0592
 Frc consts  --     3.7715                 1.5093                 2.6475
 IR Inten    --    97.2156                18.6737               264.0252

                    34                     35                     36
                     A                      A                      A
 Frequencies --  1496.5377              1507.2115              1512.3088
 Red. masses --     1.4820                 1.4853                 1.0457
 Frc consts  --     1.9556                 1.9880                 1.4091
 IR Inten    --    16.0785                24.6660                 8.7353

                    37                     38                     39
                     A                      A                      A
 Frequencies --  1566.7430              1639.0922              1653.8427
 Red. masses --     2.2369                 5.2394                 5.2647
 Frc consts  --     3.2352                 8.2935                 8.4842
 IR Inten    --   439.2055                75.5176                73.2236

                    40                     41                     42
                     A                      A                      A
 Frequencies --  1796.3671              3056.2899              3116.0024
 Red. masses --     9.0957                 1.0391                 1.1012
 Frc consts  --    17.2933                 5.7189                 6.2998
 IR Inten    --   189.8004                 5.0233                10.8119

                    43                     44                     45
                     A                      A                      A
 Frequencies --  3173.1855              3180.3084              3195.9482
 Red. masses --     1.0892                 1.1002                 1.0895
 Frc consts  --     6.4620                 6.5561                 6.5566
 IR Inten    --    25.6937                 5.6160                13.1934

                    46                     47                     48
                     A                      A                      A
 Frequencies --  3218.8816              3273.9309              3590.2170
 Red. masses --     1.0962                 1.0931                 1.0766
 Frc consts  --     6.6917                 6.9033                 8.1764
 IR Inten    --    18.5589                 3.9180                32.5692

 - Thermochemistry -
 -------------------
 Temperature   298.150 Kelvin.  Pressure   1.00000 Atm.
 Atom     1 has atomic number  6 and mass  12.00000

 Molecular mass:   136.06366 amu.
 Principal axes and moments of inertia in atomic units:
                           1         2         3
     Eigenvalues --   481.235052251.892382721.82916
           X            0.99974   0.02281   0.00000
           Y           -0.02281   0.99974   0.00000
           Z            0.00000   0.00000   1.00000
 This molecule is an asymmetric top.
 Rotational symmetry number  1.
 Warning -- assumption of classical behavior for rotation
           may cause significant error
 Rotational temperatures (Kelvin)      0.17998     0.03846     0.03182
 Rotational constants (GHZ):           3.75023     0.80143     0.66306
    1 imaginary frequencies ignored.
 Zero-point vibrational energy     378046.7 (Joules/Mol)
                                   90.35534 (Kcal/Mol)
 Warning -- explicit consideration of  10 degrees of freedom as
           vibrations may cause significant error
 Vibrational temperatures:    101.07   126.32   246.93   348.82   482.87
          (Kelvin)            519.09   609.28   754.16   801.30   844.06
                              908.61   955.45   997.33  1097.15  1145.55
                             1233.07  1309.22  1402.05  1403.58  1452.06
                             1455.35  1466.85  1528.79  1550.13  1620.86
                             1703.24  1799.50  1854.14  1915.20  1940.87
                             2037.41  2125.36  2153.18  2168.54  2175.87
                             2254.19  2358.29  2379.51  2584.57  4397.31
                             4483.23  4565.50  4575.75  4598.25  4631.25
                             4710.45  5165.51

 Zero-point correction=                           0.143990 (Hartree/Particle)
 Thermal correction to Energy=                    0.152088
 Thermal correction to Enthalpy=                  0.153032
 Thermal correction to Gibbs Free Energy=         0.110402
 Sum of electronic and zero-point Energies=           -456.168379
 Sum of electronic and thermal Energies=              -456.160281
 Sum of electronic and thermal Enthalpies=            -456.159337
 Sum of electronic and thermal Free Energies=         -456.201968

                     E (Thermal)             CV                S
                      KCal/Mol        Cal/Mol-Kelvin    Cal/Mol-Kelvin
 Total                   95.437             30.775             89.723
 Electronic               0.000              0.000              0.000
 Translational            0.889              2.981             40.636
 Rotational               0.889              2.981             29.468
 Vibrational             93.659             24.813             19.619
 Vibration     1          0.598              1.968              4.146
 Vibration     2          0.601              1.958              3.709
 Vibration     3          0.626              1.877              2.418
 Vibration     4          0.659              1.775              1.785
 Vibration     5          0.717              1.604              1.233
 Vibration     6          0.735              1.553              1.119
 Vibration     7          0.786              1.419              0.880
 Vibration     8          0.879              1.197              0.600
 Vibration     9          0.912              1.125              0.530
 Vibration    10          0.944              1.060              0.473

 Optimization completed.
    -- Stationary point found.
 Normal termination of Gaussian 09 at Fri Feb 16 21:02:57 2018.
