 Gaussian 09, Revision C.01,
 Gaussian 09:  AM64L-G09RevC.01 23-Sep-2011

 ---------------------------------------------------------
 #B3LYP/6-31G* Integral=(Grid=UltraFine) freq Opt pop=none
 ---------------------------------------------------------

 99/9=1/99;
 ----------------------------
 Optimization for frag0-conf2
 ----------------------------
 Charge =  0 Multiplicity = 1

 SCF Done:  E(RB3LYP) =  -495.841165084     A.U. after   15 cycles
 SCF Done:  E(RB3LYP) =  -495.843859384     A.U. after   13 cycles
 SCF Done:  E(RB3LYP) =  -495.843657692     A.U. after   13 cycles
 SCF Done:  E(RB3LYP) =  -495.844473894     A.U. after   12 cycles
 SCF Done:  E(RB3LYP) =  -495.844899863     A.U. after   12 cycles
 SCF Done:  E(RB3LYP) =  -495.844933891     A.U. after   13 cycles
 SCF Done:  E(RB3LYP) =  -495.845223146     A.U. after   12 cycles
 SCF Done:  E(RB3LYP) =  -495.845290701     A.U. after   11 cycles
 SCF Done:  E(RB3LYP) =  -495.845324537     A.U. after   12 cycles
 SCF Done:  E(RB3LYP) =  -495.845394527     A.U. after   11 cycles
 SCF Done:  E(RB3LYP) =  -495.845853046     A.U. after   11 cycles
 SCF Done:  E(RB3LYP) =  -495.845867864     A.U. after   10 cycles
 SCF Done:  E(RB3LYP) =  -495.845891641     A.U. after   11 cycles
 SCF Done:  E(RB3LYP) =  -495.845905034     A.U. after   10 cycles
 SCF Done:  E(RB3LYP) =  -495.845926585     A.U. after   11 cycles
 SCF Done:  E(RB3LYP) =  -495.845934351     A.U. after   10 cycles
 SCF Done:  E(RB3LYP) =  -495.845935780     A.U. after    9 cycles
 SCF Done:  E(RB3LYP) =  -495.845935862     A.U. after    7 cycles
 SCF Done:  E(RB3LYP) =  -495.845935885     A.U. after    7 cycles
 Optimization completed.
    -- Stationary point found.
 Normal termination of Gaussian 09 at Mon Feb 26 22:21:38 2018.

 --------------------------------------------------------------------
 #N Geom=AllCheck Guess=TCheck SCRF=Check GenChk RB3LYP/6-31G(d) Freq
 --------------------------------------------------------------------

 Structure from the checkpoint file:  frag0-conf2.chk
 ----------------------------
 Optimization for frag0-conf2
 ----------------------------
 Charge =  0 Multiplicity = 1

                         Standard orientation:
 ---------------------------------------------------------------------
 Center     Atomic      Atomic             Coordinates (Angstroms)
 Number     Number       Type             X           Y           Z
 ---------------------------------------------------------------------
      1          6           0        1.726633   -0.427684    0.212669
      2          6           0       -1.333605    0.355033   -0.112622
      3          6           0        3.071768   -1.051877   -0.133304
      4          6           0        0.254793    2.307280    0.223890
      5          6           0       -2.524417   -1.790628    0.032565
      6          6           0       -0.072104    1.083005   -0.637362
      7          7           0       -1.433411   -0.961201   -0.446604
      8          7           0        1.076316    0.184542   -0.837125
      9          8           0        1.251236   -0.475906    1.337754
     10          8           0       -2.214542    0.979986    0.463944
     11          1           0        3.189245   -1.269405   -1.200038
     12          1           0        3.873296   -0.368279    0.170403
     13          1           0        3.188913   -1.973914    0.440357
     14          1           0        0.570886    1.995623    1.221568
     15          1           0        1.054957    2.893740   -0.240892
     16          1           0       -0.636867    2.929172    0.323086
     17          1           0       -2.235697   -2.370678    0.918678
     18          1           0       -2.850789   -2.479952   -0.753323
     19          1           0       -3.350004   -1.130562    0.301955
     20          1           0       -0.344036    1.424232   -1.644803
     21          1           0       -0.596629   -1.410116   -0.789579
     22          1           0        1.604442    0.313337   -1.689909
 ---------------------------------------------------------------------

 SCF Done:  E(RB3LYP) =  -495.845935885     A.U. after    1 cycles

 Isotropic polarizability for W=    0.000000       80.31 Bohr**3.
 End of Minotr Frequency-dependent properties file   721 does not exist.

                     1                      2                      3
                     A                      A                      A
 Frequencies --    43.6508                62.2589                66.5468
 Red. masses --     5.4418                 1.2490                 1.6605
 Frc consts  --     0.0061                 0.0029                 0.0043
 IR Inten    --     2.2086                 0.9269                 6.3352

                     4                      5                      6
                     A                      A                      A
 Frequencies --    80.7823                87.8705               153.4273
 Red. masses --     1.8325                 2.1616                 3.3024
 Frc consts  --     0.0070                 0.0098                 0.0458
 IR Inten    --     6.9281                 0.6283                 1.9565

                     7                      8                      9
                     A                      A                      A
 Frequencies --   183.0348               210.6805               227.5165
 Red. masses --     4.1401                 3.2599                 1.1084
 Frc consts  --     0.0817                 0.0853                 0.0338
 IR Inten    --     3.6447                 0.8421                 0.6760

                    10                     11                     12
                     A                      A                      A
 Frequencies --   317.7059               335.8007               371.3446
 Red. masses --     3.3508                 3.4893                 3.8648
 Frc consts  --     0.1993                 0.2318                 0.3140
 IR Inten    --     9.5477                 5.3858                14.0247

                    13                     14                     15
                     A                      A                      A
 Frequencies --   440.5581               484.7176               497.3605
 Red. masses --     2.9697                 1.3446                 3.8667
 Frc consts  --     0.3396                 0.1861                 0.5636
 IR Inten    --    15.4522                51.7395                15.1525

                    16                     17                     18
                     A                      A                      A
 Frequencies --   528.9802               605.0643               632.2708
 Red. masses --     2.1712                 1.8774                 2.1830
 Frc consts  --     0.3580                 0.4050                 0.5142
 IR Inten    --    44.9765                65.1275                16.7109

                    19                     20                     21
                     A                      A                      A
 Frequencies --   677.3729               764.4125               844.6405
 Red. masses --     3.3504                 3.5054                 3.1902
 Frc consts  --     0.9057                 1.2068                 1.3409
 IR Inten    --     2.3021                 5.7078                 2.8427

                    22                     23                     24
                     A                      A                      A
 Frequencies --   914.5333               942.0993              1009.4910
 Red. masses --     2.4167                 2.3092                 2.0327
 Frc consts  --     1.1909                 1.2075                 1.2205
 IR Inten    --     0.4828                 5.8123                16.4465

                    25                     26                     27
                     A                      A                      A
 Frequencies --  1056.7825              1065.5417              1097.2908
 Red. masses --     1.8626                 1.7202                 2.4577
 Frc consts  --     1.2256                 1.1507                 1.7435
 IR Inten    --     7.6910                 8.9541                 0.4049

                    28                     29                     30
                     A                      A                      A
 Frequencies --  1149.9457              1158.8971              1162.3204
 Red. masses --     2.4072                 1.6008                 1.8151
 Frc consts  --     1.8755                 1.2667                 1.4448
 IR Inten    --     3.3424                25.1163                12.5098

                    31                     32                     33
                     A                      A                      A
 Frequencies --  1188.0770              1259.9403              1279.1068
 Red. masses --     1.6980                 2.0537                 1.9898
 Frc consts  --     1.4122                 1.9208                 1.9182
 IR Inten    --    17.7994                75.3424               122.0941

                    34                     35                     36
                     A                      A                      A
 Frequencies --  1330.4821              1373.7376              1422.4007
 Red. masses --     1.5503                 1.3010                 1.2562
 Frc consts  --     1.6169                 1.4466                 1.4975
 IR Inten    --    18.2555                29.7066                19.6300

                    37                     38                     39
                     A                      A                      A
 Frequencies --  1425.5551              1460.7844              1497.8450
 Red. masses --     1.2424                 1.1743                 1.0687
 Frc consts  --     1.4876                 1.4764                 1.4126
 IR Inten    --    22.8764                12.2987                27.2550

                    40                     41                     42
                     A                      A                      A
 Frequencies --  1512.7739              1515.2028              1517.4001
 Red. masses --     1.0594                 1.1331                 1.0821
 Frc consts  --     1.4285                 1.5327                 1.4680
 IR Inten    --    22.0170                36.4778                38.5429

                    43                     44                     45
                     A                      A                      A
 Frequencies --  1530.8617              1533.1380              1548.0844
 Red. masses --     1.1085                 1.1973                 1.3872
 Frc consts  --     1.5306                 1.6581                 1.9587
 IR Inten    --     8.8843                52.1963                97.9328

                    46                     47                     48
                     A                      A                      A
 Frequencies --  1579.4862              1787.5690              1795.0445
 Red. masses --     1.6287                10.0015                 9.0941
 Frc consts  --     2.3941                18.8295                17.2648
 IR Inten    --   139.8226               169.6305               225.5353

                    49                     50                     51
                     A                      A                      A
 Frequencies --  3044.0130              3049.9357              3059.9410
 Red. masses --     1.0410                 1.0833                 1.0375
 Frc consts  --     5.6832                 5.9371                 5.7237
 IR Inten    --    57.7392                19.1379                 6.7364

                    52                     53                     54
                     A                      A                      A
 Frequencies --  3069.6440              3103.2446              3124.5434
 Red. masses --     1.0412                 1.1009                 1.1018
 Frc consts  --     5.7802                 6.2464                 6.3374
 IR Inten    --    26.7102                35.6935                14.0389

                    55                     56                     57
                     A                      A                      A
 Frequencies --  3148.2927              3160.1981              3174.6227
 Red. masses --     1.0960                 1.1011                 1.0987
 Frc consts  --     6.4007                 6.4792                 6.5239
 IR Inten    --    12.3958                 7.6939                 2.3269

                    58                     59                     60
                     A                      A                      A
 Frequencies --  3175.5544              3604.1685              3632.4368
 Red. masses --     1.1036                 1.0777                 1.0763
 Frc consts  --     6.5569                 8.2479                 8.3669
 IR Inten    --     6.6033                14.8466                25.2058

 - Thermochemistry -
 -------------------
 Temperature   298.150 Kelvin.  Pressure   1.00000 Atm.
 Atom     1 has atomic number  6 and mass  12.00000

 Molecular mass:   144.08988 amu.
 Principal axes and moments of inertia in atomic units:
                           1         2         3
     Eigenvalues --   970.350321869.324242396.46895
           X            0.99951   0.02972  -0.01030
           Y           -0.02967   0.99954   0.00549
           Z            0.01046  -0.00519   0.99993
 This molecule is an asymmetric top.
 Rotational symmetry number  1.
 Warning -- assumption of classical behavior for rotation
           may cause significant error
 Rotational temperatures (Kelvin)      0.08926     0.04633     0.03614
 Rotational constants (GHZ):           1.85989     0.96545     0.75308
 Zero-point vibrational energy     490929.4 (Joules/Mol)
                                  117.33494 (Kcal/Mol)
 Warning -- explicit consideration of  17 degrees of freedom as
           vibrations may cause significant error
 Vibrational temperatures:     62.80    89.58    95.75   116.23   126.43
          (Kelvin)            220.75   263.35   303.12   327.35   457.11
                              483.14   534.28   633.86   697.40   715.59
                              761.08   870.55   909.70   974.59  1099.82
                             1215.25  1315.81  1355.47  1452.43  1520.47
                             1533.07  1578.75  1654.51  1667.39  1672.32
                             1709.38  1812.77  1840.35  1914.26  1976.50
                             2046.51  2051.05  2101.74  2155.06  2176.54
                             2180.04  2183.20  2202.57  2205.84  2227.35
                             2272.53  2571.91  2582.67  4379.65  4388.17
                             4402.57  4416.53  4464.87  4495.52  4529.69
                             4546.81  4567.57  4568.91  5185.59  5226.26

 Zero-point correction=                           0.186985 (Hartree/Particle)
 Thermal correction to Energy=                    0.199118
 Thermal correction to Enthalpy=                  0.200062
 Thermal correction to Gibbs Free Energy=         0.147893
 Sum of electronic and zero-point Energies=           -495.658951
 Sum of electronic and thermal Energies=              -495.646818
 Sum of electronic and thermal Enthalpies=            -495.645874
 Sum of electronic and thermal Free Energies=         -495.698043

                     E (Thermal)             CV                S
                      KCal/Mol        Cal/Mol-Kelvin    Cal/Mol-Kelvin
 Total                  124.948             41.796            109.798
 Electronic               0.000              0.000              0.000
 Translational            0.889              2.981             40.807
 Rotational               0.889              2.981             29.854
 Vibrational            123.171             35.835             39.138
 Vibration     1          0.595              1.980              5.086
 Vibration     2          0.597              1.972              4.384
 Vibration     3          0.598              1.970              4.253
 Vibration     4          0.600              1.962              3.872
 Vibration     5          0.601              1.958              3.707
 Vibration     6          0.619              1.899              2.629
 Vibration     7          0.631              1.863              2.297
 Vibration     8          0.643              1.825              2.038
 Vibration     9          0.651              1.799              1.898
 Vibration    10          0.704              1.640              1.322
 Vibration    11          0.717              1.604              1.232
 Vibration    12          0.743              1.531              1.074
 Vibration    13          0.800              1.382              0.825
 Vibration    14          0.841              1.284              0.697
 Vibration    15          0.853              1.256              0.665
 Vibration    16          0.884              1.186              0.589
 Vibration    17          0.964              1.021              0.441

 Optimization completed.
    -- Stationary point found.
 Normal termination of Gaussian 09 at Mon Feb 26 22:33:37 2018.
