 Gaussian 09, Revision C.01,
 Gaussian 09:  AM64L-G09RevC.01 23-Sep-2011

 ----------------------------------------------------------------------
 #HF/6-31G* Geom=AllCheck Guess=Read Pop=(MK,ReadRadii) Integral=(Grid=
 UltraFine) iop(6/33=2)
 ----------------------------------------------------------------------

 Structure from the checkpoint file:  frag0-conf2.chk
 ----------------------------
 Optimization for frag0-conf2
 ----------------------------
 Charge =  0 Multiplicity = 1

                         Standard orientation:
 ---------------------------------------------------------------------
 Center     Atomic      Atomic             Coordinates (Angstroms)
 Number     Number       Type             X           Y           Z
 ---------------------------------------------------------------------
      1          6           0        1.726633   -0.427684    0.212669
      2          6           0       -1.333605    0.355033   -0.112622
      3          6           0        3.071768   -1.051877   -0.133304
      4          6           0        0.254793    2.307280    0.223890
      5          6           0       -2.524417   -1.790628    0.032565
      6          6           0       -0.072104    1.083005   -0.637362
      7          7           0       -1.433411   -0.961201   -0.446604
      8          7           0        1.076316    0.184542   -0.837125
      9          8           0        1.251236   -0.475906    1.337754
     10          8           0       -2.214542    0.979986    0.463944
     11          1           0        3.189245   -1.269405   -1.200038
     12          1           0        3.873296   -0.368279    0.170403
     13          1           0        3.188913   -1.973914    0.440357
     14          1           0        0.570886    1.995623    1.221568
     15          1           0        1.054957    2.893740   -0.240892
     16          1           0       -0.636867    2.929172    0.323086
     17          1           0       -2.235697   -2.370678    0.918678
     18          1           0       -2.850789   -2.479952   -0.753323
     19          1           0       -3.350004   -1.130562    0.301955
     20          1           0       -0.344036    1.424232   -1.644803
     21          1           0       -0.596629   -1.410116   -0.789579
     22          1           0        1.604442    0.313337   -1.689909
 ---------------------------------------------------------------------

 SCF Done:  E(RHF) =  -492.848984716     A.U. after   14 cycles

 The electronic state is 1-A.
 Alpha  occ. eigenvalues --  -20.53895 -20.51541 -15.60597 -15.57855 -11.36852
 Alpha  occ. eigenvalues --  -11.34579 -11.29053 -11.25202 -11.25162 -11.21449
 Alpha  occ. eigenvalues --   -1.39077  -1.36699  -1.24552  -1.21311  -1.05155
 Alpha  occ. eigenvalues --   -0.99521  -0.94951  -0.87253  -0.80341  -0.76638
 Alpha  occ. eigenvalues --   -0.71385  -0.69692  -0.64940  -0.63432  -0.61931
 Alpha  occ. eigenvalues --   -0.60939  -0.59737  -0.58699  -0.57536  -0.55741
 Alpha  occ. eigenvalues --   -0.53835  -0.53131  -0.51812  -0.51240  -0.49703
 Alpha  occ. eigenvalues --   -0.43210  -0.42381  -0.39227  -0.37761
 Alpha virt. eigenvalues --    0.17736   0.18220   0.21707   0.25130   0.25587
 Alpha virt. eigenvalues --    0.28159   0.28752   0.29413   0.30503   0.31916
 Alpha virt. eigenvalues --    0.32934   0.33112   0.33618   0.34132   0.36407

 Mulliken atomic charges:
              1
     1  C    0.745035
     2  C    0.800004
     3  C   -0.585775
     4  C   -0.488622
     5  C   -0.286425
     6  C   -0.036698
     7  N   -0.788881
     8  N   -0.835139
     9  O   -0.601296
    10  O   -0.638302
    11  H    0.173539
    12  H    0.208939
    13  H    0.217349
    14  H    0.212297
    15  H    0.147487
    16  H    0.206257
    17  H    0.174181
    18  H    0.163369
    19  H    0.223134
    20  H    0.205903
    21  H    0.396178
    22  H    0.387466
 Sum of Mulliken atomic charges =   0.00000

 Dipole moment (field-independent basis, Debye):
    X=              3.9753    Y=             -1.7075    Z=             -4.7799  Tot=              6.4472
 Quadrupole moment (field-independent basis, Debye-Ang):
   XX=            -59.0303   YY=            -57.3477   ZZ=            -62.6866
   XY=              5.4390   XZ=             -2.8131   YZ=             -0.8361

 Normal termination of Gaussian 09 at Mon Feb 26 23:17:09 2018.
