 Gaussian 09, Revision C.01,
 Gaussian 09:  AM64L-G09RevC.01 23-Sep-2011

 ---------------------------------------------------------
 #B3LYP/6-31G* Integral=(Grid=UltraFine) freq Opt pop=none
 ---------------------------------------------------------

 99/9=1/99;
 -----------------------------
 Optimization for frag16-conf0
 -----------------------------
 Charge =  0 Multiplicity = 1

 SCF Done:  E(RB3LYP) =  -769.828220663     A.U. after   15 cycles
 SCF Done:  E(RB3LYP) =  -769.832592383     A.U. after   13 cycles
 SCF Done:  E(RB3LYP) =  -769.832902984     A.U. after   12 cycles
 SCF Done:  E(RB3LYP) =  -769.832561316     A.U. after   15 cycles
 SCF Done:  E(RB3LYP) =  -769.833054451     A.U. after   12 cycles
 SCF Done:  E(RB3LYP) =  -769.833075606     A.U. after   12 cycles
 SCF Done:  E(RB3LYP) =  -769.833143262     A.U. after   11 cycles
 SCF Done:  E(RB3LYP) =  -769.833164495     A.U. after   11 cycles
 SCF Done:  E(RB3LYP) =  -769.833189154     A.U. after   10 cycles
 SCF Done:  E(RB3LYP) =  -769.833203968     A.U. after   11 cycles
 SCF Done:  E(RB3LYP) =  -769.833334024     A.U. after   11 cycles
 SCF Done:  E(RB3LYP) =  -769.833339664     A.U. after    9 cycles
 SCF Done:  E(RB3LYP) =  -769.833342096     A.U. after    8 cycles
 SCF Done:  E(RB3LYP) =  -769.833342550     A.U. after    7 cycles
 SCF Done:  E(RB3LYP) =  -769.833342798     A.U. after    7 cycles
 SCF Done:  E(RB3LYP) =  -769.833342892     A.U. after    7 cycles
 SCF Done:  E(RB3LYP) =  -769.833342896     A.U. after    7 cycles
 SCF Done:  E(RB3LYP) =  -769.833342864     A.U. after    7 cycles
 SCF Done:  E(RB3LYP) =  -769.833342824     A.U. after    6 cycles
 Optimization completed.
    -- Stationary point found.
 Normal termination of Gaussian 09 at Fri Feb 16 19:57:26 2018.

 --------------------------------------------------------------------
 #N Geom=AllCheck Guess=TCheck SCRF=Check GenChk RB3LYP/6-31G(d) Freq
 --------------------------------------------------------------------

 Structure from the checkpoint file:  frag16-conf0.chk
 -----------------------------
 Optimization for frag16-conf0
 -----------------------------
 Charge =  0 Multiplicity = 1

                         Standard orientation:
 ---------------------------------------------------------------------
 Center     Atomic      Atomic             Coordinates (Angstroms)
 Number     Number       Type             X           Y           Z
 ---------------------------------------------------------------------
      1          6           0       -2.115412    2.337405    0.237302
      2          6           0       -1.344737   -1.142983   -0.574012
      3          6           0        4.162786    0.653674   -0.398625
      4          6           0        2.998344    0.719312   -1.395979
      5          6           0        3.908036   -0.417407    0.670927
      6          6           0        1.647890    0.937893   -0.693684
      7          6           0        2.562593   -0.194628    1.376852
      8          6           0        1.376703   -0.124872    0.390269
      9          6           0       -2.453586    3.481338   -0.707538
     10          6           0       -1.477649   -3.532458   -1.014424
     11          6           0       -1.758492   -2.768267    1.303053
     12          6           0        0.071953    0.094033    1.181280
     13          6           0       -1.281792    0.033362    0.416877
     14          7           0       -1.567908    1.235574   -0.347100
     15          7           0       -1.520165   -2.408128   -0.086305
     16          8           0       -2.313655    2.412182    1.447776
     17          8           0       -1.201088   -0.923255   -1.779727
     18          1           0        5.105789    0.452845   -0.923342
     19          1           0        4.278536    1.632570    0.090285
     20          1           0        3.168679    1.517806   -2.129627
     21          1           0        2.958157   -0.220959   -1.965840
     22          1           0        3.908268   -1.409748    0.195492
     23          1           0        4.721516   -0.425387    1.407931
     24          1           0        1.633420    1.934942   -0.227717
     25          1           0        0.846585    0.923793   -1.437958
     26          1           0        2.387742   -0.991753    2.112701
     27          1           0        2.605097    0.746788    1.946117
     28          1           0        1.314712   -1.102218   -0.115565
     29          1           0       -3.514320    3.727338   -0.597963
     30          1           0       -1.882135    4.366244   -0.409926
     31          1           0       -2.243219    3.260067   -1.758371
     32          1           0       -0.699344   -4.244489   -0.711441
     33          1           0       -1.261168   -3.152937   -2.011372
     34          1           0       -2.441866   -4.056889   -1.023218
     35          1           0       -2.641799   -3.416240    1.367383
     36          1           0       -1.939375   -1.890352    1.919844
     37          1           0       -0.903531   -3.317972    1.719582
     38          1           0        0.035453   -0.656335    1.982791
     39          1           0        0.092196    1.068552    1.683367
     40          1           0       -2.068202   -0.041456    1.175274
     41          1           0       -1.506566    1.133848   -1.352765
 ---------------------------------------------------------------------

 SCF Done:  E(RB3LYP) =  -769.833342824     A.U. after    1 cycles

 Isotropic polarizability for W=    0.000000      152.67 Bohr**3.
 End of Minotr Frequency-dependent properties file   721 does not exist.

                     1                      2                      3
                     A                      A                      A
 Frequencies --    31.2767                36.1771                43.8102
 Red. masses --     3.6895                 3.0729                 2.8290
 Frc consts  --     0.0021                 0.0024                 0.0032
 IR Inten    --     0.4731                 0.2203                 0.5641

                     4                      5                      6
                     A                      A                      A
 Frequencies --    53.5661                65.3665                81.7464
 Red. masses --     1.3610                 2.5539                 2.4963
 Frc consts  --     0.0023                 0.0064                 0.0098
 IR Inten    --     2.0324                 2.0084                 6.6381

                     7                      8                      9
                     A                      A                      A
 Frequencies --    94.4187               100.7493               113.7141
 Red. masses --     2.8743                 2.2058                 2.9143
 Frc consts  --     0.0151                 0.0132                 0.0222
 IR Inten    --     1.3339                 4.4567                 4.7353

                    10                     11                     12
                     A                      A                      A
 Frequencies --   135.1154               148.2465               162.3613
 Red. masses --     1.3438                 2.3328                 3.3855
 Frc consts  --     0.0145                 0.0302                 0.0526
 IR Inten    --     0.2998                 0.9789                 6.0734

                    13                     14                     15
                     A                      A                      A
 Frequencies --   228.5142               245.1966               252.2913
 Red. masses --     1.9349                 2.2130                 3.6728
 Frc consts  --     0.0595                 0.0784                 0.1377
 IR Inten    --     0.2202                 1.0370                 1.8155

                    16                     17                     18
                     A                      A                      A
 Frequencies --   255.3496               279.5586               309.5472
 Red. masses --     2.9837                 3.6088                 2.8848
 Frc consts  --     0.1146                 0.1662                 0.1629
 IR Inten    --     2.1968                 4.8503                 0.6955

                    19                     20                     21
                     A                      A                      A
 Frequencies --   345.4665               398.4531               411.0742
 Red. masses --     1.9827                 4.1043                 3.6419
 Frc consts  --     0.1394                 0.3839                 0.3626
 IR Inten    --     0.3768                10.6541                10.3223

                    22                     23                     24
                     A                      A                      A
 Frequencies --   424.8899               431.3276               445.9115
 Red. masses --     2.2257                 2.1417                 2.8456
 Frc consts  --     0.2367                 0.2348                 0.3334
 IR Inten    --     0.3838                 1.8502                 0.3637

                    25                     26                     27
                     A                      A                      A
 Frequencies --   496.6144               532.3405               544.8236
 Red. masses --     3.5518                 1.8752                 1.8750
 Frc consts  --     0.5161                 0.3131                 0.3279
 IR Inten    --    14.0059                 2.1401                36.8087

                    28                     29                     30
                     A                      A                      A
 Frequencies --   562.8561               617.7819               650.0524
 Red. masses --     2.4738                 4.1385                 3.4839
 Frc consts  --     0.4618                 0.9306                 0.8674
 IR Inten    --    73.2161                11.0386                 9.0762

                    31                     32                     33
                     A                      A                      A
 Frequencies --   663.9344               743.4277               780.0183
 Red. masses --     1.6861                 5.0679                 2.5641
 Frc consts  --     0.4379                 1.6503                 0.9192
 IR Inten    --    13.4978                 9.5111                 2.2965

                    34                     35                     36
                     A                      A                      A
 Frequencies --   800.5898               829.0393               845.7248
 Red. masses --     1.5491                 3.7681                 2.8368
 Frc consts  --     0.5850                 1.5259                 1.1955
 IR Inten    --     1.0145                 0.6407                 2.6928

                    37                     38                     39
                     A                      A                      A
 Frequencies --   860.1788               909.7977               917.4972
 Red. masses --     1.6425                 2.5577                 1.7266
 Frc consts  --     0.7160                 1.2474                 0.8564
 IR Inten    --     1.1044                 0.2809                 1.9579

                    40                     41                     42
                     A                      A                      A
 Frequencies --   939.0692               958.2874               977.0805
 Red. masses --     1.6988                 2.0264                 2.6823
 Frc consts  --     0.8827                 1.0964                 1.5088
 IR Inten    --     0.7499                 2.3761                21.8897

                    43                     44                     45
                     A                      A                      A
 Frequencies --   998.6965              1017.3268              1026.0202
 Red. masses --     2.7994                 1.7056                 2.2819
 Frc consts  --     1.6451                 1.0400                 1.4153
 IR Inten    --    17.9701                 6.6884                 0.4879

                    46                     47                     48
                     A                      A                      A
 Frequencies --  1049.9072              1068.2807              1071.5892
 Red. masses --     1.8516                 1.6873                 1.5612
 Frc consts  --     1.2026                 1.1345                 1.0562
 IR Inten    --     0.3392                 6.8342                 1.2784

                    49                     50                     51
                     A                      A                      A
 Frequencies --  1088.0001              1092.7059              1103.9134
 Red. masses --     1.3795                 2.0753                 1.2668
 Frc consts  --     0.9621                 1.4600                 0.9095
 IR Inten    --     4.1202                 0.8655                 0.9885

                    52                     53                     54
                     A                      A                      A
 Frequencies --  1116.7544              1138.0819              1140.4786
 Red. masses --     2.3140                 1.3545                 1.9487
 Frc consts  --     1.7003                 1.0336                 1.4934
 IR Inten    --     9.0380                 2.9037                19.4588

                    55                     56                     57
                     A                      A                      A
 Frequencies --  1162.0691              1183.5837              1189.3285
 Red. masses --     1.8930                 1.5507                 1.7941
 Frc consts  --     1.5061                 1.2799                 1.4952
 IR Inten    --    94.8754                 7.8884                 7.7979

                    58                     59                     60
                     A                      A                      A
 Frequencies --  1218.8384              1236.2722              1265.3942
 Red. masses --     1.5889                 1.5695                 1.5249
 Frc consts  --     1.3907                 1.4133                 1.4386
 IR Inten    --     7.0951                 1.5783                11.5626

                    61                     62                     63
                     A                      A                      A
 Frequencies --  1284.6309              1298.2629              1303.0412
 Red. masses --     4.4091                 1.3233                 1.2838
 Frc consts  --     4.2870                 1.3142                 1.2843
 IR Inten    --    32.9314                13.0515                 3.5747

                    64                     65                     66
                     A                      A                      A
 Frequencies --  1309.2967              1324.3109              1344.1191
 Red. masses --     1.3753                 1.2576                 1.3348
 Frc consts  --     1.3891                 1.2995                 1.4208
 IR Inten    --    21.1627                 1.5877                18.7575

                    67                     68                     69
                     A                      A                      A
 Frequencies --  1363.4238              1384.0550              1389.4470
 Red. masses --     1.2632                 1.4228                 1.4081
 Frc consts  --     1.3835                 1.6058                 1.6017
 IR Inten    --     0.3369                 3.5944                 0.8145

                    70                     71                     72
                     A                      A                      A
 Frequencies --  1398.5811              1401.1719              1403.6990
 Red. masses --     1.3514                 1.4996                 1.4959
 Frc consts  --     1.5574                 1.7347                 1.7366
 IR Inten    --     0.7916                 0.9001                 3.9027

                    73                     74                     75
                     A                      A                      A
 Frequencies --  1419.7567              1423.5604              1427.0220
 Red. masses --     1.2907                 1.5263                 1.2946
 Frc consts  --     1.5329                 1.8224                 1.5533
 IR Inten    --     1.8585                 1.3449                 7.8515

                    76                     77                     78
                     A                      A                      A
 Frequencies --  1449.6417              1460.3130              1499.0785
 Red. masses --     1.3903                 1.7579                 1.2181
 Frc consts  --     1.7214                 2.2088                 1.6128
 IR Inten    --    79.1533               175.4366                 5.2430

                    79                     80                     81
                     A                      A                      A
 Frequencies --  1502.0798              1505.9593              1508.4233
 Red. masses --     1.0477                 1.0949                 1.1055
 Frc consts  --     1.3928                 1.4630                 1.4821
 IR Inten    --     6.1697                34.0775                23.7899

                    82                     83                     84
                     A                      A                      A
 Frequencies --  1513.3038              1514.3652              1517.0715
 Red. masses --     1.1043                 1.0756                 1.0944
 Frc consts  --     1.4901                 1.4534                 1.4840
 IR Inten    --    32.6482                 1.4003                 1.0780

                    85                     86                     87
                     A                      A                      A
 Frequencies --  1518.2939              1521.7595              1528.8833
 Red. masses --     1.0781                 1.0821                 1.0778
 Frc consts  --     1.4642                 1.4764                 1.4843
 IR Inten    --     3.4690                12.0875                22.0672

                    88                     89                     90
                     A                      A                      A
 Frequencies --  1532.9925              1535.4674              1540.5601
 Red. masses --     1.0594                 1.0998                 1.9606
 Frc consts  --     1.4668                 1.5277                 2.7416
 IR Inten    --    12.6887                 0.5203               306.8728

                    91                     92                     93
                     A                      A                      A
 Frequencies --  1566.9869              1729.3401              1768.5167
 Red. masses --     1.2876                 9.1894                 9.0559
 Frc consts  --     1.8627                16.1919                16.6878
 IR Inten    --    27.6125               294.6913               174.8000

                    94                     95                     96
                     A                      A                      A
 Frequencies --  2993.6514              3012.5487              3017.9611
 Red. masses --     1.0810                 1.0650                 1.0688
 Frc consts  --     5.7081                 5.6945                 5.7354
 IR Inten    --     9.3332                21.8569                21.8297

                    97                     98                     99
                     A                      A                      A
 Frequencies --  3019.5915              3021.9202              3027.4479
 Red. masses --     1.0689                 1.0645                 1.0643
 Frc consts  --     5.7424                 5.7276                 5.7472
 IR Inten    --    10.7502                 7.0310                56.0516

                   100                    101                    102
                     A                      A                      A
 Frequencies --  3032.6769              3039.4068              3040.8277
 Red. masses --     1.0412                 1.0563                 1.0501
 Frc consts  --     5.6422                 5.7492                 5.7208
 IR Inten    --    19.1144                31.7064                74.4959

                   103                    104                    105
                     A                      A                      A
 Frequencies --  3055.8543              3064.4148              3066.7024
 Red. masses --     1.0973                 1.0352                 1.0973
 Frc consts  --     6.0375                 5.7275                 6.0804
 IR Inten    --    60.2533                 6.9607                60.7823

                   106                    107                    108
                     A                      A                      A
 Frequencies --  3067.5279              3073.7328              3075.5776
 Red. masses --     1.0940                 1.1041                 1.0834
 Frc consts  --     6.0650                 6.1458                 6.0378
 IR Inten    --    57.9373                81.8428                34.0242

                   109                    110                    111
                     A                      A                      A
 Frequencies --  3080.3121              3086.5645              3092.3235
 Red. masses --     1.1029                 1.1051                 1.0978
 Frc consts  --     6.1655                 6.2028                 6.1849
 IR Inten    --    42.3992                18.9754                31.0192

                   112                    113                    114
                     A                      A                      A
 Frequencies --  3114.2205              3137.9358              3142.2354
 Red. masses --     1.0919                 1.1013                 1.1042
 Frc consts  --     6.2392                 6.3889                 6.4238
 IR Inten    --    26.3115                 8.4200                17.8656

                   115                    116                    117
                     A                      A                      A
 Frequencies --  3195.8498              3198.6229              3595.5508
 Red. masses --     1.0941                 1.0958                 1.0776
 Frc consts  --     6.5836                 6.6057                 8.2077
 IR Inten    --     6.7324                 3.1800                72.1659

 - Thermochemistry -
 -------------------
 Temperature   298.150 Kelvin.  Pressure   1.00000 Atm.
 Atom     1 has atomic number  6 and mass  12.00000

 Molecular mass:   240.18378 amu.
 Principal axes and moments of inertia in atomic units:
                           1         2         3
     Eigenvalues --  3906.425445229.051997289.66732
           X            0.99962   0.02733   0.00201
           Y           -0.02726   0.99917  -0.03013
           Z           -0.00283   0.03007   0.99954
 This molecule is an asymmetric top.
 Rotational symmetry number  1.
 Warning -- assumption of classical behavior for rotation
           may cause significant error
 Rotational temperatures (Kelvin)      0.02217     0.01656     0.01188
 Rotational constants (GHZ):           0.46199     0.34514     0.24758
 Zero-point vibrational energy     964975.8 (Joules/Mol)
                                  230.63475 (Kcal/Mol)
 Warning -- explicit consideration of  29 degrees of freedom as
           vibrations may cause significant error
 Vibrational temperatures:     45.00    52.05    63.03    77.07    94.05
          (Kelvin)            117.61   135.85   144.96   163.61   194.40
                              213.29   233.60   328.78   352.78   362.99
                              367.39   402.22   445.37   497.05   573.28
                              591.44   611.32   620.58   641.57   714.52
                              765.92   783.88   809.82   888.85   935.28
                              955.25  1069.63  1122.27  1151.87  1192.80
                             1216.81  1237.60  1308.99  1320.07  1351.11
                             1378.76  1405.80  1436.90  1463.70  1476.21
                             1510.58  1537.02  1541.78  1565.39  1572.16
                             1588.28  1606.76  1637.44  1640.89  1671.96
                             1702.91  1711.18  1753.63  1778.72  1820.62
                             1848.30  1867.91  1874.78  1883.78  1905.39
                             1933.89  1961.66  1991.34  1999.10  2012.24
                             2015.97  2019.61  2042.71  2048.18  2053.16
                             2085.71  2101.06  2156.84  2161.16  2166.74
                             2170.28  2177.30  2178.83  2182.72  2184.48
                             2189.47  2199.72  2205.63  2209.19  2216.52
                             2254.54  2488.13  2544.50  4307.19  4334.38
                             4342.17  4344.51  4347.86  4355.82  4363.34
                             4373.02  4375.07  4396.69  4409.00  4412.30
                             4413.48  4422.41  4425.06  4431.88  4440.87
                             4449.16  4480.66  4514.78  4520.97  4598.11
                             4602.10  5173.19

 Zero-point correction=                           0.367540 (Hartree/Particle)
 Thermal correction to Energy=                    0.386670
 Thermal correction to Enthalpy=                  0.387614
 Thermal correction to Gibbs Free Energy=         0.318465
 Sum of electronic and zero-point Energies=           -769.465803
 Sum of electronic and thermal Energies=              -769.446673
 Sum of electronic and thermal Enthalpies=            -769.445729
 Sum of electronic and thermal Free Energies=         -769.514878

                     E (Thermal)             CV                S
                      KCal/Mol        Cal/Mol-Kelvin    Cal/Mol-Kelvin
 Total                  242.639             69.954            145.535
 Electronic               0.000              0.000              0.000
 Translational            0.889              2.981             42.330
 Rotational               0.889              2.981             33.365
 Vibrational            240.861             63.992             69.840
 Vibration     1          0.594              1.983              5.747
 Vibration     2          0.594              1.982              5.458
 Vibration     3          0.595              1.980              5.079
 Vibration     4          0.596              1.976              4.681
 Vibration     5          0.597              1.971              4.288
 Vibration     6          0.600              1.962              3.849
 Vibration     7          0.603              1.953              3.566
 Vibration     8          0.604              1.949              3.440
 Vibration     9          0.607              1.938              3.205
 Vibration    10          0.613              1.918              2.872
 Vibration    11          0.618              1.905              2.695
 Vibration    12          0.622              1.889              2.522
 Vibration    13          0.651              1.798              1.891
 Vibration    14          0.660              1.771              1.765
 Vibration    15          0.664              1.759              1.715
 Vibration    16          0.666              1.754              1.693
 Vibration    17          0.680              1.711              1.536
 Vibration    18          0.699              1.656              1.365
 Vibration    19          0.724              1.584              1.187
 Vibration    20          0.765              1.473              0.968
 Vibration    21          0.775              1.446              0.923
 Vibration    22          0.787              1.416              0.876
 Vibration    23          0.792              1.402              0.854
 Vibration    24          0.805              1.370              0.808
 Vibration    25          0.852              1.258              0.667
 Vibration    26          0.887              1.178              0.582
 Vibration    27          0.900              1.151              0.555
 Vibration    28          0.919              1.112              0.518
 Vibration    29          0.978              0.994              0.420

 Optimization completed on the basis of negligible forces.
    -- Stationary point found.
 Normal termination of Gaussian 09 at Fri Feb 16 21:15:23 2018.
