 Gaussian 09, Revision C.01,
 Gaussian 09:  AM64L-G09RevC.01 23-Sep-2011

 ----------------------------------------------------------------------
 #HF/6-31G* Geom=AllCheck Guess=Read Pop=(MK,ReadRadii) Integral=(Grid=
 UltraFine) iop(6/33=2)
 ----------------------------------------------------------------------

 Structure from the checkpoint file:  frag16-conf0.chk
 -----------------------------
 Optimization for frag16-conf0
 -----------------------------
 Charge =  0 Multiplicity = 1

                         Standard orientation:
 ---------------------------------------------------------------------
 Center     Atomic      Atomic             Coordinates (Angstroms)
 Number     Number       Type             X           Y           Z
 ---------------------------------------------------------------------
      1          6           0       -2.115412    2.337405    0.237302
      2          6           0       -1.344737   -1.142983   -0.574012
      3          6           0        4.162786    0.653674   -0.398625
      4          6           0        2.998344    0.719312   -1.395979
      5          6           0        3.908036   -0.417407    0.670927
      6          6           0        1.647890    0.937893   -0.693684
      7          6           0        2.562593   -0.194628    1.376852
      8          6           0        1.376703   -0.124872    0.390269
      9          6           0       -2.453586    3.481338   -0.707538
     10          6           0       -1.477649   -3.532458   -1.014424
     11          6           0       -1.758492   -2.768267    1.303053
     12          6           0        0.071953    0.094033    1.181280
     13          6           0       -1.281792    0.033362    0.416877
     14          7           0       -1.567908    1.235574   -0.347100
     15          7           0       -1.520165   -2.408128   -0.086305
     16          8           0       -2.313655    2.412182    1.447776
     17          8           0       -1.201088   -0.923255   -1.779727
     18          1           0        5.105789    0.452845   -0.923342
     19          1           0        4.278536    1.632570    0.090285
     20          1           0        3.168679    1.517806   -2.129627
     21          1           0        2.958157   -0.220959   -1.965840
     22          1           0        3.908268   -1.409748    0.195492
     23          1           0        4.721516   -0.425387    1.407931
     24          1           0        1.633420    1.934942   -0.227717
     25          1           0        0.846585    0.923793   -1.437958
     26          1           0        2.387742   -0.991753    2.112701
     27          1           0        2.605097    0.746788    1.946117
     28          1           0        1.314712   -1.102218   -0.115565
     29          1           0       -3.514320    3.727338   -0.597963
     30          1           0       -1.882135    4.366244   -0.409926
     31          1           0       -2.243219    3.260067   -1.758371
     32          1           0       -0.699344   -4.244489   -0.711441
     33          1           0       -1.261168   -3.152937   -2.011372
     34          1           0       -2.441866   -4.056889   -1.023218
     35          1           0       -2.641799   -3.416240    1.367383
     36          1           0       -1.939375   -1.890352    1.919844
     37          1           0       -0.903531   -3.317972    1.719582
     38          1           0        0.035453   -0.656335    1.982791
     39          1           0        0.092196    1.068552    1.683367
     40          1           0       -2.068202   -0.041456    1.175274
     41          1           0       -1.506566    1.133848   -1.352765
 ---------------------------------------------------------------------

 SCF Done:  E(RHF) =  -764.921038354     A.U. after   13 cycles

 The electronic state is 1-A.
 Alpha  occ. eigenvalues --  -20.53366 -20.51462 -15.60544 -15.57953 -11.36384
 Alpha  occ. eigenvalues --  -11.34830 -11.28331 -11.27981 -11.26299 -11.23338
 Alpha  occ. eigenvalues --  -11.22905 -11.22626 -11.21761 -11.21651 -11.21432
 Alpha  occ. eigenvalues --  -11.21302 -11.21062  -1.38794  -1.36528  -1.25284
 Alpha  occ. eigenvalues --   -1.22444  -1.11716  -1.05665  -1.00949  -0.99645
 Alpha  occ. eigenvalues --   -0.98464  -0.97383  -0.93838  -0.87707  -0.82704
 Alpha  occ. eigenvalues --   -0.80636  -0.77791  -0.75465  -0.74166  -0.70604
 Alpha  occ. eigenvalues --   -0.67582  -0.66397  -0.64915  -0.63878  -0.63184
 Alpha  occ. eigenvalues --   -0.62157  -0.60289  -0.59876  -0.58991  -0.58537
 Alpha  occ. eigenvalues --   -0.57915  -0.57015  -0.56633  -0.55685  -0.54741
 Alpha  occ. eigenvalues --   -0.53608  -0.53299  -0.52049  -0.51755  -0.51385
 Alpha  occ. eigenvalues --   -0.49318  -0.48265  -0.47691  -0.46971  -0.44597
 Alpha  occ. eigenvalues --   -0.43342  -0.42196  -0.41849  -0.41003  -0.38302
 Alpha  occ. eigenvalues --   -0.37187
 Alpha virt. eigenvalues --    0.17968   0.20237   0.21043   0.22869   0.24264
 Alpha virt. eigenvalues --    0.24631   0.25550   0.26693   0.28056   0.28726
 Alpha virt. eigenvalues --    0.28827   0.29757   0.30733   0.30771   0.31481

 Mulliken atomic charges:
              1
     1  C    0.765273
     2  C    0.814004
     3  C   -0.308616
     4  C   -0.313561
     5  C   -0.309598
     6  C   -0.301387
     7  C   -0.306425
     8  C   -0.174397
     9  C   -0.573223
    10  C   -0.297333
    11  C   -0.286982
    12  C   -0.308511
    13  C   -0.048071
    14  N   -0.826251
    15  N   -0.673642
    16  O   -0.642211
    17  O   -0.665717
    18  H    0.159917
    19  H    0.150244
    20  H    0.160128
    21  H    0.154293
    22  H    0.149530
    23  H    0.160814
    24  H    0.146375
    25  H    0.179525
    26  H    0.153951
    27  H    0.153825
    28  H    0.157680
    29  H    0.204285
    30  H    0.204829
    31  H    0.174412
    32  H    0.166293
    33  H    0.239981
    34  H    0.167972
    35  H    0.181295
    36  H    0.195779
    37  H    0.177209
    38  H    0.156551
    39  H    0.206422
    40  H    0.226006
    41  H    0.429332
 Sum of Mulliken atomic charges =   0.00000

 Dipole moment (field-independent basis, Debye):
    X=              0.2845    Y=             -2.8244    Z=             -0.2729  Tot=              2.8518
 Quadrupole moment (field-independent basis, Debye-Ang):
   XX=           -107.1563   YY=            -96.6560   ZZ=           -113.7347
   XY=              6.3704   XZ=              4.2881   YZ=            -12.1531

 Normal termination of Gaussian 09 at Sat Feb 17 20:59:32 2018.
