 Gaussian 09, Revision C.01,
 Gaussian 09:  AM64L-G09RevC.01 23-Sep-2011

 ----------------------------------------------------------------------
 #HF/6-31G* Geom=AllCheck Guess=Read Pop=(MK,ReadRadii) Integral=(Grid=
 UltraFine) iop(6/33=2)
 ----------------------------------------------------------------------

 Structure from the checkpoint file:  frag32-conf1.chk
 -----------------------------
 Optimization for frag32-conf1
 -----------------------------
 Charge =  0 Multiplicity = 1

                         Standard orientation:
 ---------------------------------------------------------------------
 Center     Atomic      Atomic             Coordinates (Angstroms)
 Number     Number       Type             X           Y           Z
 ---------------------------------------------------------------------
      1          6           0        2.019847    1.204605    0.178047
      2          6           0        1.022996   -0.917306   -0.273489
      3          6           0        3.252437    0.552153    0.242962
      4          6           0        2.298428   -1.472323   -0.186528
      5          6           0        0.867471    0.461129   -0.088468
      6          6           0       -2.675418   -0.029867   -0.084003
      7          6           0       -3.674361   -0.718336    0.833934
      8          6           0       -0.489070    1.129404   -0.196655
      9          7           0        3.408153   -0.764814    0.068228
     10          7           0       -1.536797    0.429923    0.528248
     11          8           0       -2.883127    0.106812   -1.282507
     12          1           0        1.963273    2.279023    0.335366
     13          1           0        0.163472   -1.547558   -0.482493
     14          1           0        4.159381    1.117923    0.451539
     15          1           0        2.438576   -2.542716   -0.329703
     16          1           0       -4.601020   -0.135597    0.846388
     17          1           0       -3.913743   -1.701086    0.417711
     18          1           0       -3.320744   -0.841761    1.862480
     19          1           0       -0.416035    2.169505    0.147353
     20          1           0       -0.824591    1.152252   -1.239074
     21          1           0       -1.417034    0.283003    1.520348
 ---------------------------------------------------------------------

 SCF Done:  E(RHF) =  -492.543265233     A.U. after   14 cycles

 The electronic state is 1-A.
 Alpha  occ. eigenvalues --  -20.52805 -15.60055 -15.56796 -11.36292 -11.28179
 Alpha  occ. eigenvalues --  -11.27754 -11.27632 -11.26899 -11.24615 -11.24461
 Alpha  occ. eigenvalues --  -11.24202  -1.38092  -1.25594  -1.23777  -1.10351
 Alpha  occ. eigenvalues --   -1.03090  -1.01892  -0.94893  -0.85653  -0.82943
 Alpha  occ. eigenvalues --   -0.79690  -0.71493  -0.68981  -0.67029  -0.65290
 Alpha  occ. eigenvalues --   -0.64374  -0.62135  -0.59513  -0.58520  -0.57819
 Alpha  occ. eigenvalues --   -0.56984  -0.55353  -0.52985  -0.51633  -0.50647
 Alpha  occ. eigenvalues --   -0.42668  -0.41652  -0.40160  -0.36776  -0.34531
 Alpha virt. eigenvalues --    0.11615   0.13383   0.18968   0.21133   0.24532
 Alpha virt. eigenvalues --    0.25934   0.27426   0.28764   0.30712   0.30965
 Alpha virt. eigenvalues --    0.32061   0.33060   0.33213   0.35364   0.38379

 Mulliken atomic charges:
              1
     1  C   -0.285927
     2  C   -0.259716
     3  C    0.070832
     4  C    0.067113
     5  C    0.061764
     6  C    0.757584
     7  C   -0.578241
     8  C   -0.142630
     9  N   -0.523366
    10  N   -0.808848
    11  O   -0.619694
    12  H    0.208301
    13  H    0.220203
    14  H    0.205223
    15  H    0.205572
    16  H    0.210978
    17  H    0.211396
    18  H    0.168297
    19  H    0.186588
    20  H    0.256092
    21  H    0.388479
 Sum of Mulliken atomic charges =   0.00000

 Dipole moment (field-independent basis, Debye):
    X=             -1.1998    Y=              0.8535    Z=              3.5344  Tot=              3.8289
 Quadrupole moment (field-independent basis, Debye-Ang):
   XX=            -75.8778   YY=            -59.0125   ZZ=            -68.3265
   XY=              7.4623   XZ=            -10.3070   YZ=              1.3440

 Normal termination of Gaussian 09 at Sat Feb 17 21:02:01 2018.
