 Gaussian 09, Revision C.01,
 Gaussian 09:  AM64L-G09RevC.01 23-Sep-2011

 ----------------------------------------------------------------------
 #HF/6-31G* Geom=AllCheck Guess=Read Pop=(MK,ReadRadii) Integral=(Grid=
 UltraFine) iop(6/33=2)
 ----------------------------------------------------------------------

 Structure from the checkpoint file:  frag41-conf0.chk
 -----------------------------
 Optimization for frag41-conf0
 -----------------------------
 Charge =  0 Multiplicity = 1

                         Standard orientation:
 ---------------------------------------------------------------------
 Center     Atomic      Atomic             Coordinates (Angstroms)
 Number     Number       Type             X           Y           Z
 ---------------------------------------------------------------------
      1          7           0       -2.838051   -1.292905    0.114252
      2          6           0       -2.429349    0.013831   -0.016587
      3          8           0       -3.218306    0.936818   -0.170491
      4          6           0       -0.963458    0.257769   -0.000362
      5          6           0       -0.388630    1.501091    0.082592
      6          6           0        1.032720    1.477681    0.095063
      7          6           0        1.522795    0.201339    0.016494
      8         17           0        3.187347   -0.270284   -0.010230
      9         16           0        0.262129   -0.994537   -0.087814
     10          1           0       -3.835753   -1.423882    0.218782
     11          1           0       -2.248081   -1.977054    0.567777
     12          1           0       -0.992493    2.399286    0.135872
     13          1           0        1.665703    2.354598    0.157470
 ---------------------------------------------------------------------

 SCF Done:  E(RHF) =  -1177.96490594     A.U. after   15 cycles

 The electronic state is 1-A.
 Alpha  occ. eigenvalues -- -104.85740 -92.00470 -20.53757 -15.59946 -11.37755
 Alpha  occ. eigenvalues --  -11.35061 -11.28918 -11.27248 -11.26914 -10.59016
 Alpha  occ. eigenvalues --   -9.01387  -8.05966  -8.05607  -8.05599  -6.69638
 Alpha  occ. eigenvalues --   -6.69541  -6.69365  -1.38810  -1.22414  -1.21277
 Alpha  occ. eigenvalues --   -1.14116  -1.01845  -0.99533  -0.86571  -0.76931
 Alpha  occ. eigenvalues --   -0.75985  -0.72691  -0.69039  -0.64194  -0.60054
 Alpha  occ. eigenvalues --   -0.59154  -0.58843  -0.56353  -0.55784  -0.50654
 Alpha  occ. eigenvalues --   -0.48564  -0.47333  -0.43856  -0.42289  -0.37272
 Alpha  occ. eigenvalues --   -0.33854
 Alpha virt. eigenvalues --    0.07070   0.14613   0.18190   0.18611   0.21381
 Alpha virt. eigenvalues --    0.25151   0.27302   0.28110   0.29589   0.31065
 Alpha virt. eigenvalues --    0.36062   0.41373   0.42727   0.46252   0.48428

 Mulliken atomic charges:
              1
     1  N   -0.928341
     2  C    0.797823
     3  O   -0.609807
     4  C   -0.376227
     5  C   -0.122648
     6  C   -0.157943
     7  C   -0.338075
     8  Cl   0.055225
     9  S    0.376584
    10  H    0.401318
    11  H    0.394745
    12  H    0.264121
    13  H    0.243226
 Sum of Mulliken atomic charges =   0.00000

 Dipole moment (field-independent basis, Debye):
    X=              0.9729    Y=             -1.4678    Z=              1.4077  Tot=              2.2544
 Quadrupole moment (field-independent basis, Debye-Ang):
   XX=            -71.3860   YY=            -59.2160   ZZ=            -68.0790
   XY=             11.8769   XZ=             -3.8426   YZ=             -1.2176

 Normal termination of Gaussian 09 at Fri Aug 24 15:36:03 2018.
