 Gaussian 09, Revision C.01,
 Gaussian 09:  AM64L-G09RevC.01 23-Sep-2011

 ---------------------------------------------------------
 #B3LYP/6-31G* Integral=(Grid=UltraFine) freq Opt pop=none
 ---------------------------------------------------------

 99/9=1/99;
 -----------------------------
 Optimization for frag41-conf0
 -----------------------------
 Charge =  0 Multiplicity = 1

 SCF Done:  E(RB3LYP) =  -1181.28978208     A.U. after   15 cycles
 SCF Done:  E(RB3LYP) =  -1181.29397001     A.U. after   13 cycles
 SCF Done:  E(RB3LYP) =  -1181.29449016     A.U. after   13 cycles
 SCF Done:  E(RB3LYP) =  -1181.29469889     A.U. after   13 cycles
 SCF Done:  E(RB3LYP) =  -1181.29484936     A.U. after   12 cycles
 SCF Done:  E(RB3LYP) =  -1181.29498726     A.U. after   13 cycles
 SCF Done:  E(RB3LYP) =  -1181.29503423     A.U. after   11 cycles
 SCF Done:  E(RB3LYP) =  -1181.29506129     A.U. after   11 cycles
 SCF Done:  E(RB3LYP) =  -1181.29507582     A.U. after   11 cycles
 SCF Done:  E(RB3LYP) =  -1181.29508735     A.U. after   11 cycles
 SCF Done:  E(RB3LYP) =  -1181.29509332     A.U. after   11 cycles
 SCF Done:  E(RB3LYP) =  -1181.29509393     A.U. after    8 cycles
 Optimization completed.
    -- Stationary point found.
 Normal termination of Gaussian 09 at Fri Aug 24 15:03:31 2018.

 --------------------------------------------------------------------
 #N Geom=AllCheck Guess=TCheck SCRF=Check GenChk RB3LYP/6-31G(d) Freq
 --------------------------------------------------------------------

 Structure from the checkpoint file:  frag41-conf0.chk
 -----------------------------
 Optimization for frag41-conf0
 -----------------------------
 Charge =  0 Multiplicity = 1

                         Standard orientation:
 ---------------------------------------------------------------------
 Center     Atomic      Atomic             Coordinates (Angstroms)
 Number     Number       Type             X           Y           Z
 ---------------------------------------------------------------------
      1          7           0       -2.838051   -1.292905    0.114252
      2          6           0       -2.429349    0.013831   -0.016587
      3          8           0       -3.218306    0.936818   -0.170491
      4          6           0       -0.963458    0.257769   -0.000362
      5          6           0       -0.388630    1.501091    0.082592
      6          6           0        1.032720    1.477681    0.095063
      7          6           0        1.522795    0.201339    0.016494
      8         17           0        3.187347   -0.270284   -0.010230
      9         16           0        0.262129   -0.994537   -0.087814
     10          1           0       -3.835753   -1.423882    0.218782
     11          1           0       -2.248081   -1.977054    0.567777
     12          1           0       -0.992493    2.399286    0.135872
     13          1           0        1.665703    2.354598    0.157470
 ---------------------------------------------------------------------

 SCF Done:  E(RB3LYP) =  -1181.29509393     A.U. after    1 cycles

 Isotropic polarizability for W=    0.000000       85.83 Bohr**3.
 End of Minotr Frequency-dependent properties file   721 does not exist.

                     1                      2                      3
                     A                      A                      A
 Frequencies --    60.9176                96.3237               144.2243
 Red. masses --     5.4293                12.6900                 8.0058
 Frc consts  --     0.0119                 0.0694                 0.0981
 IR Inten    --    11.9026                 0.8589                 4.9682

                     4                      5                      6
                     A                      A                      A
 Frequencies --   251.2369               276.3395               323.6162
 Red. masses --     6.8004                 8.7117                10.2287
 Frc consts  --     0.2529                 0.3920                 0.6311
 IR Inten    --     1.9643                 2.3681                 2.6107

                     7                      8                      9
                     A                      A                      A
 Frequencies --   378.9344               441.1169               465.9120
 Red. masses --     1.2603                 5.0582                 4.5616
 Frc consts  --     0.1066                 0.5799                 0.5834
 IR Inten    --   165.4839                27.2322                19.0550

                    10                     11                     12
                     A                      A                      A
 Frequencies --   486.8375               546.6484               570.0547
 Red. masses --     5.7175                 1.6863                 2.0948
 Frc consts  --     0.7984                 0.2969                 0.4011
 IR Inten    --    15.8740                29.6132                21.8951

                    13                     14                     15
                     A                      A                      A
 Frequencies --   634.5669               703.1666               734.6607
 Red. masses --     5.0139                 5.7822                 6.7839
 Frc consts  --     1.1895                 1.6845                 2.1573
 IR Inten    --     9.6728                21.2584                 2.7462

                    16                     17                     18
                     A                      A                      A
 Frequencies --   750.9603               828.5190               926.2459
 Red. masses --     5.4319                 1.3107                 1.4161
 Frc consts  --     1.8048                 0.5301                 0.7158
 IR Inten    --    44.7665                22.9202                 0.6371

                    19                     20                     21
                     A                      A                      A
 Frequencies --   997.7066              1057.8246              1105.2762
 Red. masses --     3.2085                 2.9911                 2.2961
 Frc consts  --     1.8818                 1.9720                 1.6527
 IR Inten    --    57.9646                10.2777                15.7624

                    22                     23                     24
                     A                      A                      A
 Frequencies --  1116.2479              1238.1970              1338.4801
 Red. masses --     2.0140                 1.4188                 3.3700
 Frc consts  --     1.4785                 1.2816                 3.5572
 IR Inten    --     0.4711                 7.2764                77.0488

                    25                     26                     27
                     A                      A                      A
 Frequencies --  1388.6818              1486.6037              1596.3580
 Red. masses --     4.0597                 7.0473                 5.5509
 Frc consts  --     4.6126                 9.1762                 8.3344
 IR Inten    --   212.8875               183.6134                12.0443

                    28                     29                     30
                     A                      A                      A
 Frequencies --  1652.5419              1782.8438              3242.6354
 Red. masses --     1.2549                 8.0354                 1.0902
 Frc consts  --     2.0192                15.0482                 6.7541
 IR Inten    --   168.2419               270.9716                 0.6298

                    31                     32                     33
                     A                      A                      A
 Frequencies --  3254.4926              3573.3850              3690.8932
 Red. masses --     1.0973                 1.0463                 1.1028
 Frc consts  --     6.8479                 7.8714                 8.8512
 IR Inten    --     0.5433                41.8904                32.5147

 - Thermochemistry -
 -------------------
 Temperature   298.150 Kelvin.  Pressure   1.00000 Atm.
 Atom     1 has atomic number  7 and mass  14.00307

 Molecular mass:   160.97021 amu.
 Principal axes and moments of inertia in atomic units:
                           1         2         3
     Eigenvalues --   517.015442804.352283310.68858
           X            0.99982   0.01884  -0.00263
           Y           -0.01885   0.99981  -0.00530
           Z            0.00253   0.00535   0.99998
 This molecule is an asymmetric top.
 Rotational symmetry number  1.
 Warning -- assumption of classical behavior for rotation
           may cause significant error
 Rotational temperatures (Kelvin)      0.16753     0.03089     0.02616
 Rotational constants (GHZ):           3.49069     0.64355     0.54513
 Zero-point vibrational energy     222161.2 (Joules/Mol)
                                   53.09780 (Kcal/Mol)
 Warning -- explicit consideration of  12 degrees of freedom as
           vibrations may cause significant error
 Vibrational temperatures:     87.65   138.59   207.51   361.47   397.59
          (Kelvin)            465.61   545.20   634.67   670.34   700.45
                              786.50   820.18   913.00  1011.70  1057.01
                             1080.46  1192.05  1332.66  1435.48  1521.97
                             1590.24  1606.03  1781.49  1925.77  1998.00
                             2138.89  2296.80  2377.64  2565.11  4665.42
                             4682.48  5141.30  5310.37

 Zero-point correction=                           0.084617 (Hartree/Particle)
 Thermal correction to Energy=                    0.093164
 Thermal correction to Enthalpy=                  0.094108
 Thermal correction to Gibbs Free Energy=         0.050089
 Sum of electronic and zero-point Energies=          -1181.210477
 Sum of electronic and thermal Energies=             -1181.201930
 Sum of electronic and thermal Enthalpies=           -1181.200986
 Sum of electronic and thermal Free Energies=        -1181.245005

                     E (Thermal)             CV                S
                      KCal/Mol        Cal/Mol-Kelvin    Cal/Mol-Kelvin
 Total                   58.461             30.860             92.645
 Electronic               0.000              0.000              0.000
 Translational            0.889              2.981             41.137
 Rotational               0.889              2.981             29.952
 Vibrational             56.684             24.899             21.555
 Vibration     1          0.597              1.973              4.427
 Vibration     2          0.603              1.952              3.527
 Vibration     3          0.616              1.909              2.747
 Vibration     4          0.663              1.761              1.722
 Vibration     5          0.678              1.717              1.556
 Vibration     6          0.708              1.628              1.292
 Vibration     7          0.749              1.515              1.043
 Vibration     8          0.801              1.380              0.823
 Vibration     9          0.823              1.326              0.749
 Vibration    10          0.843              1.279              0.692
 Vibration    11          0.902              1.147              0.551
 Vibration    12          0.926              1.096              0.504

 Optimization completed.
    -- Stationary point found.
 Normal termination of Gaussian 09 at Fri Aug 24 15:06:41 2018.
