 Gaussian 09, Revision C.01,
 Gaussian 09:  AM64L-G09RevC.01 23-Sep-2011

 ----------------------------------------------------------------------
 #HF/6-31G* Geom=AllCheck Guess=Read Pop=(MK,ReadRadii) Integral=(Grid=
 UltraFine) iop(6/33=2)
 ----------------------------------------------------------------------

 Structure from the checkpoint file:  frag18-conf2.chk
 -----------------------------
 Optimization for frag18-conf2
 -----------------------------
 Charge =  1 Multiplicity = 1

                         Standard orientation:
 ---------------------------------------------------------------------
 Center     Atomic      Atomic             Coordinates (Angstroms)
 Number     Number       Type             X           Y           Z
 ---------------------------------------------------------------------
      1          6           0        2.597685    1.395125    0.519858
      2          6           0        1.334749    1.820456    0.094667
      3          6           0        2.910160    0.050987    0.471543
      4          6           0        0.777550   -0.450327   -0.404396
      5          6           0        0.401186    0.893231   -0.374226
      6          6           0       -2.569721   -0.344696    0.073846
      7          6           0       -3.824272   -0.557410    0.891891
      8          6           0        2.371926   -2.280836   -0.054544
      9          6           0       -0.988420    1.291779   -0.859086
     10          7           0        1.999673   -0.845231    0.013174
     11          7           0       -2.056232    0.927869    0.062873
     12          8           0       -2.028920   -1.247082   -0.563088
     13          1           0        3.336179    2.098740    0.887234
     14          1           0        1.083590    2.877025    0.128056
     15          1           0        3.867060   -0.349144    0.785146
     16          1           0        0.079466   -1.211813   -0.737106
     17          1           0       -4.671303   -0.684587    0.208664
     18          1           0       -3.724064   -1.483385    1.463220
     19          1           0       -4.046139    0.268580    1.573502
     20          1           0        2.843602   -2.571862    0.885252
     21          1           0        1.470884   -2.872521   -0.210204
     22          1           0        3.064637   -2.433553   -0.885444
     23          1           0       -1.019620    2.373511   -1.009579
     24          1           0       -1.178618    0.811068   -1.824649
     25          1           0       -2.543453    1.666274    0.550973
 ---------------------------------------------------------------------

 SCF Done:  E(RHF) =  -531.963802134     A.U. after   14 cycles

 The electronic state is 1-A.
 Alpha  occ. eigenvalues --  -20.64850 -15.84528 -15.71939 -11.47836 -11.47814
 Alpha  occ. eigenvalues --  -11.47118 -11.44063 -11.43682 -11.42299 -11.42134
 Alpha  occ. eigenvalues --  -11.42024 -11.34238  -1.50681  -1.50018  -1.35893
 Alpha  occ. eigenvalues --   -1.29093  -1.23666  -1.14956  -1.13434  -1.08659
 Alpha  occ. eigenvalues --   -1.03887  -1.01085  -0.91471  -0.89663  -0.87095
 Alpha  occ. eigenvalues --   -0.83029  -0.81449  -0.80744  -0.79497  -0.78519
 Alpha  occ. eigenvalues --   -0.77377  -0.73340  -0.72513  -0.70982  -0.70512
 Alpha  occ. eigenvalues --   -0.69582  -0.69084  -0.67716  -0.65912  -0.62100
 Alpha  occ. eigenvalues --   -0.56676  -0.54601  -0.52386  -0.51751
 Alpha virt. eigenvalues --   -0.08664  -0.04299   0.06478   0.08144   0.09242
 Alpha virt. eigenvalues --    0.11106   0.13347   0.13624   0.13952   0.15184
 Alpha virt. eigenvalues --    0.16396   0.17056   0.18722   0.18911   0.20371

 Mulliken atomic charges:
              1
     1  C   -0.272809
     2  C   -0.104508
     3  C    0.152091
     4  C    0.161810
     5  C   -0.065751
     6  C    0.766334
     7  C   -0.583130
     8  C   -0.331601
     9  C   -0.162651
    10  N   -0.599023
    11  N   -0.792825
    12  O   -0.648942
    13  H    0.286217
    14  H    0.278455
    15  H    0.293656
    16  H    0.361330
    17  H    0.234336
    18  H    0.228700
    19  H    0.188404
    20  H    0.238293
    21  H    0.248485
    22  H    0.246234
    23  H    0.221607
    24  H    0.245516
    25  H    0.409771
 Sum of Mulliken atomic charges =   1.00000

 Dipole moment (field-independent basis, Debye):
    X=              5.2654    Y=              2.1043    Z=              1.6454  Tot=              5.9042
 Quadrupole moment (field-independent basis, Debye-Ang):
   XX=            -29.0305   YY=            -50.9536   ZZ=            -68.4305
   XY=            -10.3743   XZ=             -0.9411   YZ=             -0.6991

 Normal termination of Gaussian 09 at Sat Feb 17 20:58:38 2018.
