 Gaussian 09, Revision C.01,
 Gaussian 09:  AM64L-G09RevC.01 23-Sep-2011

 ---------------------------------------------------------
 #B3LYP/6-31G* Integral=(Grid=UltraFine) freq Opt pop=none
 ---------------------------------------------------------

 99/9=1/99;
 -----------------------------
 Optimization for frag18-conf2
 -----------------------------
 Charge =  1 Multiplicity = 1

 SCF Done:  E(RB3LYP) =  -535.293835564     A.U. after   17 cycles
 SCF Done:  E(RB3LYP) =  -535.296933188     A.U. after   12 cycles
 SCF Done:  E(RB3LYP) =  -535.297347736     A.U. after   11 cycles
 SCF Done:  E(RB3LYP) =  -535.298415046     A.U. after   13 cycles
 SCF Done:  E(RB3LYP) =  -535.300126316     A.U. after   15 cycles
 SCF Done:  E(RB3LYP) =  -535.301867327     A.U. after   12 cycles
 SCF Done:  E(RB3LYP) =  -535.305515380     A.U. after   14 cycles
 SCF Done:  E(RB3LYP) =  -535.308302749     A.U. after   14 cycles
 SCF Done:  E(RB3LYP) =  -535.303572443     A.U. after   15 cycles
 SCF Done:  E(RB3LYP) =  -535.309747526     A.U. after   13 cycles
 SCF Done:  E(RB3LYP) =  -535.311890317     A.U. after   10 cycles
 SCF Done:  E(RB3LYP) =  -535.311896324     A.U. after   11 cycles
 SCF Done:  E(RB3LYP) =  -535.311907071     A.U. after   11 cycles
 SCF Done:  E(RB3LYP) =  -535.311902023     A.U. after   10 cycles
 SCF Done:  E(RB3LYP) =  -535.311909942     A.U. after    9 cycles
 SCF Done:  E(RB3LYP) =  -535.311914637     A.U. after   10 cycles
 SCF Done:  E(RB3LYP) =  -535.311915662     A.U. after   10 cycles
 SCF Done:  E(RB3LYP) =  -535.311916139     A.U. after   10 cycles
 SCF Done:  E(RB3LYP) =  -535.311916210     A.U. after    9 cycles
 Optimization completed.
    -- Stationary point found.
 Normal termination of Gaussian 09 at Fri Feb 16 19:21:44 2018.

 --------------------------------------------------------------------
 #N Geom=AllCheck Guess=TCheck SCRF=Check GenChk RB3LYP/6-31G(d) Freq
 --------------------------------------------------------------------

 Structure from the checkpoint file:  frag18-conf2.chk
 -----------------------------
 Optimization for frag18-conf2
 -----------------------------
 Charge =  1 Multiplicity = 1

                         Standard orientation:
 ---------------------------------------------------------------------
 Center     Atomic      Atomic             Coordinates (Angstroms)
 Number     Number       Type             X           Y           Z
 ---------------------------------------------------------------------
      1          6           0        2.597685    1.395125    0.519858
      2          6           0        1.334749    1.820456    0.094667
      3          6           0        2.910160    0.050987    0.471543
      4          6           0        0.777550   -0.450327   -0.404396
      5          6           0        0.401186    0.893231   -0.374226
      6          6           0       -2.569721   -0.344696    0.073846
      7          6           0       -3.824272   -0.557410    0.891891
      8          6           0        2.371926   -2.280836   -0.054544
      9          6           0       -0.988420    1.291779   -0.859086
     10          7           0        1.999673   -0.845231    0.013174
     11          7           0       -2.056232    0.927869    0.062873
     12          8           0       -2.028920   -1.247082   -0.563088
     13          1           0        3.336179    2.098740    0.887234
     14          1           0        1.083590    2.877025    0.128056
     15          1           0        3.867060   -0.349144    0.785146
     16          1           0        0.079466   -1.211813   -0.737106
     17          1           0       -4.671303   -0.684587    0.208664
     18          1           0       -3.724064   -1.483385    1.463220
     19          1           0       -4.046139    0.268580    1.573502
     20          1           0        2.843602   -2.571862    0.885252
     21          1           0        1.470884   -2.872521   -0.210204
     22          1           0        3.064637   -2.433553   -0.885444
     23          1           0       -1.019620    2.373511   -1.009579
     24          1           0       -1.178618    0.811068   -1.824649
     25          1           0       -2.543453    1.666274    0.550973
 ---------------------------------------------------------------------

 SCF Done:  E(RB3LYP) =  -535.311916210     A.U. after    1 cycles

 Isotropic polarizability for W=    0.000000      103.32 Bohr**3.
 End of Minotr Frequency-dependent properties file   721 does not exist.

                     1                      2                      3
                     A                      A                      A
 Frequencies --    17.9701                38.0324                56.6927
 Red. masses --     3.6997                 1.0420                 1.1884
 Frc consts  --     0.0007                 0.0009                 0.0023
 IR Inten    --     2.5884                 0.0464                 2.6937

                     4                      5                      6
                     A                      A                      A
 Frequencies --    73.0271               112.6425               174.8517
 Red. masses --     2.6212                 5.1188                 4.6264
 Frc consts  --     0.0082                 0.0383                 0.0833
 IR Inten    --     4.7795                18.8619                 1.0371

                     7                      8                      9
                     A                      A                      A
 Frequencies --   198.0882               208.0134               293.5666
 Red. masses --     3.9963                 3.6937                 3.3494
 Frc consts  --     0.0924                 0.0942                 0.1701
 IR Inten    --     5.5937                 4.8166                10.1495

                    10                     11                     12
                     A                      A                      A
 Frequencies --   314.5682               411.8504               420.4980
 Red. masses --     2.4911                 2.3966                 1.3093
 Frc consts  --     0.1452                 0.2395                 0.1364
 IR Inten    --     1.7994                 6.9207                75.2067

                    13                     14                     15
                     A                      A                      A
 Frequencies --   429.4512               459.9113               510.1283
 Red. masses --     2.6501                 3.0558                 4.3685
 Frc consts  --     0.2880                 0.3808                 0.6698
 IR Inten    --     0.9435                14.2033                 5.2670

                    16                     17                     18
                     A                      A                      A
 Frequencies --   544.9808               595.2424               637.7855
 Red. masses --     5.1236                 4.0660                 2.7230
 Frc consts  --     0.8966                 0.8488                 0.6526
 IR Inten    --     3.4728                 4.5612                 0.5878

                    19                     20                     21
                     A                      A                      A
 Frequencies --   670.3801               704.7702               754.4519
 Red. masses --     4.0591                 2.3626                 4.1712
 Frc consts  --     1.0748                 0.6914                 1.3989
 IR Inten    --     9.9566                26.0492                 9.6705

                    22                     23                     24
                     A                      A                      A
 Frequencies --   829.9053               857.0519               930.4247
 Red. masses --     1.5301                 2.5890                 2.8085
 Frc consts  --     0.6209                 1.1205                 1.4325
 IR Inten    --    19.2281                 2.4350                 3.6303

                    25                     26                     27
                     A                      A                      A
 Frequencies --   966.3324               979.7702              1006.7399
 Red. masses --     1.6232                 1.3882                 1.6145
 Frc consts  --     0.8930                 0.7852                 0.9641
 IR Inten    --     4.9842                17.4962                 5.9233

                    28                     29                     30
                     A                      A                      A
 Frequencies --  1023.1733              1041.8596              1050.7896
 Red. masses --     1.3718                 2.7162                 4.8457
 Frc consts  --     0.8461                 1.7371                 3.1523
 IR Inten    --     0.5328                 6.8493                 1.9045

                    31                     32                     33
                     A                      A                      A
 Frequencies --  1071.3485              1105.1909              1114.3302
 Red. masses --     1.7338                 1.9170                 2.5918
 Frc consts  --     1.1725                 1.3796                 1.8962
 IR Inten    --    10.5990                 1.9500                 6.2866

                    34                     35                     36
                     A                      A                      A
 Frequencies --  1158.8405              1160.8840              1189.8043
 Red. masses --     1.3511                 1.5228                 1.6876
 Frc consts  --     1.0691                 1.2091                 1.4076
 IR Inten    --     4.7626                 2.8491                28.8647

                    37                     38                     39
                     A                      A                      A
 Frequencies --  1230.8921              1259.6067              1281.3620
 Red. masses --     1.2137                 3.5897                 1.7682
 Frc consts  --     1.0834                 3.3556                 1.7105
 IR Inten    --    13.6985                10.0025                83.6250

                    40                     41                     42
                     A                      A                      A
 Frequencies --  1309.6191              1360.0468              1383.7269
 Red. masses --     1.6228                 3.1137                 1.2865
 Frc consts  --     1.6398                 3.3934                 1.4513
 IR Inten    --    38.3005                24.3956                 6.5448

                    43                     44                     45
                     A                      A                      A
 Frequencies --  1410.3122              1430.8783              1470.1252
 Red. masses --     1.2935                 1.2360                 1.2458
 Frc consts  --     1.5158                 1.4909                 1.5864
 IR Inten    --    29.8773                19.4447                 4.0125

                    46                     47                     48
                     A                      A                      A
 Frequencies --  1493.4128              1494.5321              1498.4835
 Red. masses --     1.1553                 1.1569                 1.3114
 Frc consts  --     1.5181                 1.5225                 1.7350
 IR Inten    --     9.1500                19.5543                16.4428

                    49                     50                     51
                     A                      A                      A
 Frequencies --  1512.5674              1513.1472              1521.4869
 Red. masses --     1.0849                 1.0708                 1.5226
 Frc consts  --     1.4624                 1.4445                 2.0767
 IR Inten    --    15.3117                19.9760                24.1190

                    52                     53                     54
                     A                      A                      A
 Frequencies --  1543.2052              1553.9536              1640.4784
 Red. masses --     1.7328                 1.8553                 5.1056
 Frc consts  --     2.4314                 2.6396                 8.0954
 IR Inten    --    59.4351               158.9484                 0.8212

                    55                     56                     57
                     A                      A                      A
 Frequencies --  1678.7616              1761.6008              3071.1889
 Red. masses --     4.9349                 8.5191                 1.0367
 Frc consts  --     8.1942                15.5761                 5.7615
 IR Inten    --    20.9193               170.7326                 1.8442

                    58                     59                     60
                     A                      A                      A
 Frequencies --  3080.4030              3097.4687              3139.6241
 Red. masses --     1.0623                 1.0325                 1.1043
 Frc consts  --     5.9391                 5.8367                 6.4135
 IR Inten    --     9.5432                 1.2446                 3.2252

                    61                     62                     63
                     A                      A                      A
 Frequencies --  3140.4961              3162.7503              3182.3486
 Red. masses --     1.1013                 1.1034                 1.1076
 Frc consts  --     6.3997                 6.5032                 6.6087
 IR Inten    --     5.9115                 4.8902                 0.2727

                    64                     65                     66
                     A                      A                      A
 Frequencies --  3207.1364              3214.9096              3232.9348
 Red. masses --     1.1074                 1.0919                 1.0966
 Frc consts  --     6.7112                 6.6490                 6.7530
 IR Inten    --     1.0671                 0.1371                61.5915

                    67                     68                     69
                     A                      A                      A
 Frequencies --  3241.6903              3255.9436              3629.0214
 Red. masses --     1.0923                 1.0981                 1.0790
 Frc consts  --     6.7630                 6.8590                 8.3725
 IR Inten    --     1.5718                 3.0850                39.7156

 - Thermochemistry -
 -------------------
 Temperature   298.150 Kelvin.  Pressure   1.00000 Atm.
 Atom     1 has atomic number  6 and mass  12.00000

 Molecular mass:   165.10279 amu.
 Principal axes and moments of inertia in atomic units:
                           1         2         3
     Eigenvalues --  1081.941063154.393353906.25130
           X            0.99982  -0.01762  -0.00675
           Y            0.01757   0.99982  -0.00688
           Z            0.00687   0.00676   0.99995
 This molecule is an asymmetric top.
 Rotational symmetry number  1.
 Warning -- assumption of classical behavior for rotation
           may cause significant error
 Rotational temperatures (Kelvin)      0.08005     0.02746     0.02217
 Rotational constants (GHZ):           1.66806     0.57214     0.46201
 Zero-point vibrational energy     562947.4 (Joules/Mol)
                                  134.54767 (Kcal/Mol)
 Warning -- explicit consideration of  17 degrees of freedom as
           vibrations may cause significant error
 Vibrational temperatures:     25.85    54.72    81.57   105.07   162.07
          (Kelvin)            251.57   285.00   299.28   422.38   452.59
                              592.56   605.00   617.88   661.71   733.96
                              784.10   856.42   917.63   964.53  1014.01
                             1085.49  1194.05  1233.11  1338.67  1390.34
                             1409.67  1448.47  1472.12  1499.00  1511.85
                             1541.43  1590.12  1603.27  1667.31  1670.25
                             1711.86  1770.98  1812.29  1843.59  1884.25
                             1956.80  1990.87  2029.12  2058.71  2115.18
                             2148.69  2150.30  2155.98  2176.24  2177.08
                             2189.08  2220.33  2235.79  2360.28  2415.36
                             2534.55  4418.75  4432.01  4456.56  4517.21
                             4518.47  4550.49  4578.68  4614.35  4625.53
                             4651.47  4664.06  4684.57  5221.35

 Zero-point correction=                           0.214415 (Hartree/Particle)
 Thermal correction to Energy=                    0.226699
 Thermal correction to Enthalpy=                  0.227643
 Thermal correction to Gibbs Free Energy=         0.173641
 Sum of electronic and zero-point Energies=           -535.097501
 Sum of electronic and thermal Energies=              -535.085217
 Sum of electronic and thermal Enthalpies=            -535.084273
 Sum of electronic and thermal Free Energies=         -535.138275

                     E (Thermal)             CV                S
                      KCal/Mol        Cal/Mol-Kelvin    Cal/Mol-Kelvin
 Total                  142.256             44.307            113.657
 Electronic               0.000              0.000              0.000
 Translational            0.889              2.981             41.213
 Rotational               0.889              2.981             30.967
 Vibrational            140.478             38.346             41.477
 Vibration     1          0.593              1.986              6.847
 Vibration     2          0.594              1.982              5.359
 Vibration     3          0.596              1.975              4.569
 Vibration     4          0.599              1.967              4.070
 Vibration     5          0.607              1.939              3.223
 Vibration     6          0.627              1.873              2.383
 Vibration     7          0.637              1.843              2.151
 Vibration     8          0.641              1.828              2.061
 Vibration     9          0.688              1.686              1.453
 Vibration    10          0.702              1.646              1.338
 Vibration    11          0.776              1.445              0.920
 Vibration    12          0.783              1.426              0.890
 Vibration    13          0.791              1.406              0.860
 Vibration    14          0.818              1.339              0.766
 Vibration    15          0.865              1.228              0.633
 Vibration    16          0.900              1.151              0.555
 Vibration    17          0.953              1.042              0.458

 Optimization completed.
    -- Stationary point found.
 Normal termination of Gaussian 09 at Fri Feb 16 19:37:32 2018.
