 Gaussian 09, Revision C.01,
 Gaussian 09:  AM64L-G09RevC.01 23-Sep-2011

 ----------------------------------------------------------------------
 #HF/6-31G* Geom=AllCheck Guess=Read Pop=(MK,ReadRadii) Integral=(Grid=
 UltraFine) iop(6/33=2)
 ----------------------------------------------------------------------

 Structure from the checkpoint file:  frag20-conf1.chk
 -----------------------------
 Optimization for frag20-conf1
 -----------------------------
 Charge =  1 Multiplicity = 1

                         Standard orientation:
 ---------------------------------------------------------------------
 Center     Atomic      Atomic             Coordinates (Angstroms)
 Number     Number       Type             X           Y           Z
 ---------------------------------------------------------------------
      1          6           0        2.274289    0.822281    0.651142
      2          6           0        2.662792   -0.499460    0.622273
      3          6           0        0.739357   -1.076624   -0.602545
      4          6           0        0.279486    0.235056   -0.614532
      5          6           0        1.069009    1.194560    0.038784
      6          6           0       -2.586157   -0.695247    0.180865
      7          6           0       -3.823652   -0.661251    1.049335
      8          6           0        2.325583   -2.849989   -0.035800
      9          6           0       -1.058357    0.535578   -1.276809
     10          7           0        1.894761   -1.430543    0.002997
     11          7           0       -2.154947    0.505589   -0.323621
     12          8           0       -1.981408   -1.732621   -0.085024
     13         17           0        0.577908    2.848190    0.114209
     14          1           0        2.895289    1.556011    1.151236
     15          1           0        3.576669   -0.849356    1.086532
     16          1           0        0.154577   -1.870858   -1.047625
     17          1           0       -4.648254   -1.133829    0.504796
     18          1           0       -3.643781   -1.256214    1.948409
     19          1           0       -4.126849    0.349119    1.337507
     20          1           0        1.448715   -3.487828    0.079614
     21          1           0        2.816191   -3.053709   -0.990695
     22          1           0        3.018933   -3.034103    0.784473
     23          1           0       -1.029776    1.521469   -1.743592
     24          1           0       -1.234784   -0.207676   -2.060766
     25          1           0       -2.672912    1.353964   -0.143181
 ---------------------------------------------------------------------

 SCF Done:  E(RHF) =  -990.855538595     A.U. after   14 cycles

 The electronic state is 1-A.
 Alpha  occ. eigenvalues -- -104.99025 -20.64801 -15.84931 -15.71995 -11.50589
 Alpha  occ. eigenvalues --  -11.48829 -11.48288 -11.47761 -11.44095 -11.43310
 Alpha  occ. eigenvalues --  -11.43042 -11.42297 -11.34211 -10.72336  -8.19271
 Alpha  occ. eigenvalues --   -8.18911  -8.18898  -1.51388  -1.50027  -1.36578
 Alpha  occ. eigenvalues --   -1.34206  -1.24975  -1.24485  -1.14673  -1.13056
 Alpha  occ. eigenvalues --   -1.09097  -1.03990  -1.00907  -0.91750  -0.88997
 Alpha  occ. eigenvalues --   -0.88914  -0.83066  -0.82139  -0.81048  -0.79808
 Alpha  occ. eigenvalues --   -0.78351  -0.77383  -0.74049  -0.73298  -0.71897
 Alpha  occ. eigenvalues --   -0.71401  -0.70056  -0.69648  -0.68079  -0.66261
 Alpha  occ. eigenvalues --   -0.65553  -0.62186  -0.61171  -0.55409  -0.54498
 Alpha  occ. eigenvalues --   -0.52359  -0.52051
 Alpha virt. eigenvalues --   -0.09503  -0.04845   0.03823   0.07456   0.09214
 Alpha virt. eigenvalues --    0.09774   0.11424   0.12943   0.13226   0.14827
 Alpha virt. eigenvalues --    0.15572   0.16367   0.17317   0.18277   0.18697

 Mulliken atomic charges:
              1
     1  C   -0.255806
     2  C    0.166520
     3  C    0.210728
     4  C   -0.040859
     5  C   -0.062693
     6  C    0.768066
     7  C   -0.583748
     8  C   -0.332603
     9  C   -0.160706
    10  N   -0.614080
    11  N   -0.794307
    12  O   -0.651128
    13  Cl   0.135158
    14  H    0.302129
    15  H    0.299891
    16  H    0.330864
    17  H    0.233850
    18  H    0.227971
    19  H    0.189226
    20  H    0.254150
    21  H    0.248344
    22  H    0.235592
    23  H    0.242031
    24  H    0.236425
    25  H    0.414988
 Sum of Mulliken atomic charges =   1.00000

 Dipole moment (field-independent basis, Debye):
    X=              4.7352    Y=             -1.3848    Z=              0.2787  Tot=              4.9414
 Quadrupole moment (field-independent basis, Debye-Ang):
   XX=            -42.6118   YY=            -65.4883   ZZ=            -76.4158
   XY=            -16.5159   XZ=              3.1018   YZ=              0.1699

 Normal termination of Gaussian 09 at Sat Feb 17 20:59:07 2018.
