 Gaussian 09, Revision C.01,
 Gaussian 09:  AM64L-G09RevC.01 23-Sep-2011

 ---------------------------------------------------------
 #B3LYP/6-31G* Integral=(Grid=UltraFine) freq Opt pop=none
 ---------------------------------------------------------

 99/9=1/99;
 -----------------------------
 Optimization for frag20-conf1
 -----------------------------
 Charge =  1 Multiplicity = 1

 SCF Done:  E(RB3LYP) =  -994.885775129     A.U. after   17 cycles
 SCF Done:  E(RB3LYP) =  -994.890639146     A.U. after   13 cycles
 SCF Done:  E(RB3LYP) =  -994.892618099     A.U. after   15 cycles
 SCF Done:  E(RB3LYP) =  -994.893789918     A.U. after   15 cycles
 SCF Done:  E(RB3LYP) =  -994.894796193     A.U. after   13 cycles
 SCF Done:  E(RB3LYP) =  -994.895758307     A.U. after   15 cycles
 SCF Done:  E(RB3LYP) =  -994.896167606     A.U. after   15 cycles
 SCF Done:  E(RB3LYP) =  -994.896542593     A.U. after   12 cycles
 SCF Done:  E(RB3LYP) =  -994.896978746     A.U. after   12 cycles
 SCF Done:  E(RB3LYP) =  -994.897640153     A.U. after   13 cycles
 SCF Done:  E(RB3LYP) =  -994.901578702     A.U. after    9 cycles
 SCF Done:  E(RB3LYP) =  -994.901592358     A.U. after   11 cycles
 SCF Done:  E(RB3LYP) =  -994.901599855     A.U. after   10 cycles
 SCF Done:  E(RB3LYP) =  -994.901600997     A.U. after    9 cycles
 SCF Done:  E(RB3LYP) =  -994.901593695     A.U. after   11 cycles
 SCF Done:  E(RB3LYP) =  -994.901601459     A.U. after   10 cycles
 SCF Done:  E(RB3LYP) =  -994.901601625     A.U. after    8 cycles
 SCF Done:  E(RB3LYP) =  -994.901601659     A.U. after    7 cycles
 SCF Done:  E(RB3LYP) =  -994.901601664     A.U. after    7 cycles
 Optimization completed.
    -- Stationary point found.
 Normal termination of Gaussian 09 at Fri Feb 16 20:38:36 2018.

 --------------------------------------------------------------------
 #N Geom=AllCheck Guess=TCheck SCRF=Check GenChk RB3LYP/6-31G(d) Freq
 --------------------------------------------------------------------

 Structure from the checkpoint file:  frag20-conf1.chk
 -----------------------------
 Optimization for frag20-conf1
 -----------------------------
 Charge =  1 Multiplicity = 1

                         Standard orientation:
 ---------------------------------------------------------------------
 Center     Atomic      Atomic             Coordinates (Angstroms)
 Number     Number       Type             X           Y           Z
 ---------------------------------------------------------------------
      1          6           0        2.274289    0.822281    0.651142
      2          6           0        2.662792   -0.499460    0.622273
      3          6           0        0.739357   -1.076624   -0.602545
      4          6           0        0.279486    0.235056   -0.614532
      5          6           0        1.069009    1.194560    0.038784
      6          6           0       -2.586157   -0.695247    0.180865
      7          6           0       -3.823652   -0.661251    1.049335
      8          6           0        2.325583   -2.849989   -0.035800
      9          6           0       -1.058357    0.535578   -1.276809
     10          7           0        1.894761   -1.430543    0.002997
     11          7           0       -2.154947    0.505589   -0.323621
     12          8           0       -1.981408   -1.732621   -0.085024
     13         17           0        0.577908    2.848190    0.114209
     14          1           0        2.895289    1.556011    1.151236
     15          1           0        3.576669   -0.849356    1.086532
     16          1           0        0.154577   -1.870858   -1.047625
     17          1           0       -4.648254   -1.133829    0.504796
     18          1           0       -3.643781   -1.256214    1.948409
     19          1           0       -4.126849    0.349119    1.337507
     20          1           0        1.448715   -3.487828    0.079614
     21          1           0        2.816191   -3.053709   -0.990695
     22          1           0        3.018933   -3.034103    0.784473
     23          1           0       -1.029776    1.521469   -1.743592
     24          1           0       -1.234784   -0.207676   -2.060766
     25          1           0       -2.672912    1.353964   -0.143181
 ---------------------------------------------------------------------

 SCF Done:  E(RB3LYP) =  -994.901601664     A.U. after    1 cycles

 Isotropic polarizability for W=    0.000000      117.23 Bohr**3.
 End of Minotr Frequency-dependent properties file   721 does not exist.

                     1                      2                      3
                     A                      A                      A
 Frequencies --    31.2628                34.7332                52.2630
 Red. masses --     1.8587                 1.5690                 1.2834
 Frc consts  --     0.0011                 0.0011                 0.0021
 IR Inten    --     1.5163                 1.4419                 2.9024

                     4                      5                      6
                     A                      A                      A
 Frequencies --    66.6858                90.7918               106.6312
 Red. masses --     2.5250                 5.1151                 4.2684
 Frc consts  --     0.0066                 0.0248                 0.0286
 IR Inten    --     4.1776                21.1461                 1.8626

                     7                      8                      9
                     A                      A                      A
 Frequencies --   170.5562               196.3726               255.8894
 Red. masses --     5.7589                 5.9704                 4.2789
 Frc consts  --     0.0987                 0.1356                 0.1651
 IR Inten    --     3.0689                 4.2360                 1.8757

                    10                     11                     12
                     A                      A                      A
 Frequencies --   290.5714               328.8305               334.3616
 Red. masses --     4.7982                 2.2636                 4.6019
 Frc consts  --     0.2387                 0.1442                 0.3031
 IR Inten    --     5.7410                 9.7482                 4.1345

                    13                     14                     15
                     A                      A                      A
 Frequencies --   386.5488               407.1186               426.0002
 Red. masses --     5.9094                 1.2031                 3.1339
 Frc consts  --     0.5202                 0.1175                 0.3351
 IR Inten    --    17.9456                66.4406                 3.2589

                    16                     17                     18
                     A                      A                      A
 Frequencies --   470.8111               485.6080               548.8557
 Red. masses --     3.0869                 3.1058                 4.2526
 Frc consts  --     0.4032                 0.4315                 0.7548
 IR Inten    --     4.1787                21.3572                 5.5358

                    19                     20                     21
                     A                      A                      A
 Frequencies --   599.7780               636.0282               662.6621
 Red. masses --     4.1170                 2.6972                 5.4482
 Frc consts  --     0.8726                 0.6429                 1.4096
 IR Inten    --     1.3900                 1.3820                 4.4731

                    22                     23                     24
                     A                      A                      A
 Frequencies --   676.9602               735.7379               774.7522
 Red. masses --     4.5040                 5.4034                 4.3306
 Frc consts  --     1.2161                 1.7233                 1.5315
 IR Inten    --     8.6431                 2.4808                10.3373

                    25                     26                     27
                     A                      A                      A
 Frequencies --   845.0450               863.4715               909.3281
 Red. masses --     1.3217                 2.6247                 1.5463
 Frc consts  --     0.5561                 1.1530                 0.7533
 IR Inten    --    26.6852                 2.2239                10.8534

                    28                     29                     30
                     A                      A                      A
 Frequencies --   955.5049               974.9952              1006.0770
 Red. masses --     3.8440                 1.3273                 1.6157
 Frc consts  --     2.0677                 0.7434                 0.9636
 IR Inten    --    19.0486                 0.0900                 6.7302

                    31                     32                     33
                     A                      A                      A
 Frequencies --  1043.9491              1071.7825              1107.4444
 Red. masses --     2.6245                 1.7268                 2.7892
 Frc consts  --     1.6852                 1.1687                 2.0154
 IR Inten    --     6.1187                10.1235                36.0268

                    34                     35                     36
                     A                      A                      A
 Frequencies --  1113.5398              1123.9493              1157.7690
 Red. masses --     4.3237                 2.0102                 1.3396
 Frc consts  --     3.1588                 1.4962                 1.0580
 IR Inten    --    59.4030                 7.4087                 5.3865

                    37                     38                     39
                     A                      A                      A
 Frequencies --  1196.0782              1215.1490              1248.4479
 Red. masses --     1.5854                 2.0744                 2.4796
 Frc consts  --     1.3363                 1.8047                 2.2770
 IR Inten    --     4.9605                 6.0179                28.6776

                    40                     41                     42
                     A                      A                      A
 Frequencies --  1274.3720              1306.7260              1325.0006
 Red. masses --     1.6523                 1.6101                 2.1142
 Frc consts  --     1.5810                 1.6199                 2.1869
 IR Inten    --    73.2533                27.1686                14.6856

                    43                     44                     45
                     A                      A                      A
 Frequencies --  1380.5588              1407.0410              1430.8870
 Red. masses --     2.1534                 1.2806                 1.2338
 Frc consts  --     2.4182                 1.4938                 1.4883
 IR Inten    --    15.6702                27.5124                18.4702

                    46                     47                     48
                     A                      A                      A
 Frequencies --  1469.1862              1486.1740              1494.8115
 Red. masses --     1.3365                 1.6791                 1.0645
 Frc consts  --     1.6996                 2.1851                 1.4014
 IR Inten    --     8.5999                11.6686                14.6765

                    49                     50                     51
                     A                      A                      A
 Frequencies --  1500.3079              1511.3975              1511.6161
 Red. masses --     1.1598                 1.0833                 1.0900
 Frc consts  --     1.5381                 1.4579                 1.4675
 IR Inten    --    21.2972                32.3570                14.6792

                    52                     53                     54
                     A                      A                      A
 Frequencies --  1525.0639              1534.9461              1546.2141
 Red. masses --     1.1981                 1.9097                 1.9188
 Frc consts  --     1.6417                 2.6510                 2.7028
 IR Inten    --    28.5935                55.6832               157.4016

                    55                     56                     57
                     A                      A                      A
 Frequencies --  1603.6356              1677.8000              1756.6384
 Red. masses --     5.7717                 4.7634                 8.8916
 Frc consts  --     8.7451                 7.9004                16.1658
 IR Inten    --    15.2685               107.1349               163.1609

                    58                     59                     60
                     A                      A                      A
 Frequencies --  3072.1851              3087.9488              3096.9361
 Red. masses --     1.0363                 1.0652                 1.0326
 Frc consts  --     5.7626                 5.9845                 5.8352
 IR Inten    --     1.7052                 8.8847                 1.7958

                    61                     62                     63
                     A                      A                      A
 Frequencies --  3142.5585              3155.2262              3160.4716
 Red. masses --     1.1014                 1.1013                 1.1039
 Frc consts  --     6.4086                 6.4599                 6.4964
 IR Inten    --     4.4941                 0.5100                 5.5116

                    64                     65                     66
                     A                      A                      A
 Frequencies --  3184.3085              3203.3857              3248.1683
 Red. masses --     1.1067                 1.1084                 1.0916
 Frc consts  --     6.6116                 6.7012                 6.7857
 IR Inten    --     0.2895                 0.3437                 4.0952

                    67                     68                     69
                     A                      A                      A
 Frequencies --  3261.4055              3273.2862              3633.5226
 Red. masses --     1.0976                 1.0949                 1.0793
 Frc consts  --     6.8787                 6.9117                 8.3955
 IR Inten    --     9.3001                12.9877                43.2948

 - Thermochemistry -
 -------------------
 Temperature   298.150 Kelvin.  Pressure   1.00000 Atm.
 Atom     1 has atomic number  6 and mass  12.00000

 Molecular mass:   199.06382 amu.
 Principal axes and moments of inertia in atomic units:
                           1         2         3
     Eigenvalues --  2262.165423102.671834848.23081
           X            0.99658  -0.08244  -0.00480
           Y            0.08242   0.99659  -0.00415
           Z            0.00512   0.00374   0.99998
 This molecule is an asymmetric top.
 Rotational symmetry number  1.
 Warning -- assumption of classical behavior for rotation
           may cause significant error
 Rotational temperatures (Kelvin)      0.03829     0.02792     0.01787
 Rotational constants (GHZ):           0.79779     0.58167     0.37225
 Zero-point vibrational energy     537506.8 (Joules/Mol)
                                  128.46721 (Kcal/Mol)
 Warning -- explicit consideration of  19 degrees of freedom as
           vibrations may cause significant error
 Vibrational temperatures:     44.98    49.97    75.19    95.95   130.63
          (Kelvin)            153.42   245.39   282.54   368.17   418.07
                              473.11   481.07   556.16   585.75   612.92
                              677.39   698.68   789.68   862.95   915.10
                              953.42   973.99  1058.56  1114.69  1215.83
                             1242.34  1308.32  1374.76  1402.80  1447.52
                             1502.01  1542.05  1593.36  1602.13  1617.11
                             1665.77  1720.89  1748.33  1796.24  1833.53
                             1880.08  1906.38  1986.31  2024.42  2058.72
                             2113.83  2138.27  2150.70  2158.61  2174.56
                             2174.88  2194.22  2208.44  2224.65  2307.27
                             2413.98  2527.41  4420.18  4442.86  4455.79
                             4521.44  4539.66  4547.21  4581.50  4608.95
                             4673.38  4692.43  4709.52  5227.82

 Zero-point correction=                           0.204726 (Hartree/Particle)
 Thermal correction to Energy=                    0.218176
 Thermal correction to Enthalpy=                  0.219120
 Thermal correction to Gibbs Free Energy=         0.162337
 Sum of electronic and zero-point Energies=           -994.696876
 Sum of electronic and thermal Energies=              -994.683426
 Sum of electronic and thermal Enthalpies=            -994.682482
 Sum of electronic and thermal Free Energies=         -994.739265

                     E (Thermal)             CV                S
                      KCal/Mol        Cal/Mol-Kelvin    Cal/Mol-Kelvin
 Total                  136.907             48.100            119.510
 Electronic               0.000              0.000              0.000
 Translational            0.889              2.981             41.770
 Rotational               0.889              2.981             31.898
 Vibrational            135.130             42.138             45.841
 Vibration     1          0.594              1.983              5.748
 Vibration     2          0.594              1.983              5.539
 Vibration     3          0.596              1.977              4.730
 Vibration     4          0.598              1.970              4.249
 Vibration     5          0.602              1.956              3.643
 Vibration     6          0.606              1.944              3.329
 Vibration     7          0.626              1.879              2.429
 Vibration     8          0.636              1.845              2.167
 Vibration     9          0.666              1.753              1.690
 Vibration    10          0.687              1.691              1.471
 Vibration    11          0.712              1.618              1.266
 Vibration    12          0.716              1.607              1.239
 Vibration    13          0.755              1.499              1.013
 Vibration    14          0.772              1.455              0.937
 Vibration    15          0.788              1.414              0.872
 Vibration    16          0.828              1.315              0.735
 Vibration    17          0.842              1.282              0.695
 Vibration    18          0.904              1.142              0.547
 Vibration    19          0.958              1.032              0.450

 Optimization completed.
    -- Stationary point found.
 Normal termination of Gaussian 09 at Fri Feb 16 21:02:12 2018.
