 Gaussian 09, Revision C.01,
 Gaussian 09:  AM64L-G09RevC.01 23-Sep-2011

 ----------------------------------------------------------------------
 #HF/6-31G* Geom=AllCheck Guess=Read Pop=(MK,ReadRadii) Integral=(Grid=
 UltraFine) iop(6/33=2)
 ----------------------------------------------------------------------

 Structure from the checkpoint file:  frag8-conf2.chk
 ----------------------------
 Optimization for frag8-conf2
 ----------------------------
 Charge =  0 Multiplicity = 1

                         Standard orientation:
 ---------------------------------------------------------------------
 Center     Atomic      Atomic             Coordinates (Angstroms)
 Number     Number       Type             X           Y           Z
 ---------------------------------------------------------------------
      1          6           0        1.550854    1.853472    0.107717
      2          6           0        2.728262    1.136560    0.335381
      3          6           0        0.394783    1.196726   -0.307249
      4          6           0        1.596198   -0.895759   -0.266738
      5          6           0        2.767898   -0.249955    0.153096
      6          6           0        0.410874   -0.192550   -0.497423
      7          6           0       -2.937158   -0.051878    0.073886
      8          6           0        4.030127   -1.036619    0.423429
      9          6           0       -3.884610   -0.154125    1.260841
     10          6           0       -0.847510   -0.915404   -0.941951
     11          7           0       -1.897346   -0.942373    0.074616
     12          8           0       -3.110415    0.768176   -0.821150
     13          1           0        1.540714    2.931728    0.245599
     14          1           0        3.627068    1.660830    0.652839
     15          1           0       -0.521288    1.750055   -0.495918
     16          1           0        1.613333   -1.973846   -0.423195
     17          1           0        4.063723   -1.394222    1.461538
     18          1           0        4.101180   -1.917180   -0.224310
     19          1           0        4.924912   -0.425987    0.262544
     20          1           0       -3.839410    0.779520    1.831022
     21          1           0       -4.906465   -0.256816    0.884520
     22          1           0       -3.665901   -0.990684    1.932070
     23          1           0       -1.290850   -0.419153   -1.808941
     24          1           0       -0.610043   -1.947270   -1.224958
     25          1           0       -1.730545   -1.488571    0.908149
 ---------------------------------------------------------------------

 SCF Done:  E(RHF) =  -515.588011075     A.U. after   14 cycles

 The electronic state is 1-A.
 Alpha  occ. eigenvalues --  -20.51946 -15.58912 -11.35372 -11.26781 -11.24224
 Alpha  occ. eigenvalues --  -11.23875 -11.23865 -11.23269 -11.23047 -11.22880
 Alpha  occ. eigenvalues --  -11.22730 -11.22529  -1.37105  -1.22701  -1.14843
 Alpha  occ. eigenvalues --   -1.05176  -1.02682  -0.99894  -0.93240  -0.91839
 Alpha  occ. eigenvalues --   -0.81482  -0.78804  -0.78007  -0.68848  -0.67923
 Alpha  occ. eigenvalues --   -0.64830  -0.64015  -0.62524  -0.60577  -0.57772
 Alpha  occ. eigenvalues --   -0.57474  -0.57159  -0.56172  -0.55548  -0.54889
 Alpha  occ. eigenvalues --   -0.52949  -0.51044  -0.48506  -0.47843  -0.47726
 Alpha  occ. eigenvalues --   -0.41705  -0.38723  -0.32777  -0.31588
 Alpha virt. eigenvalues --    0.13905   0.14505   0.19806   0.21826   0.24192
 Alpha virt. eigenvalues --    0.26383   0.26747   0.28007   0.30136   0.30554
 Alpha virt. eigenvalues --    0.31152   0.31746   0.33481   0.33609   0.34722

 Mulliken atomic charges:
              1
     1  C   -0.190829
     2  C   -0.230907
     3  C   -0.235752
     4  C   -0.260300
     5  C    0.051708
     6  C    0.033969
     7  C    0.763196
     8  C   -0.509141
     9  C   -0.575853
    10  C   -0.165675
    11  N   -0.789548
    12  O   -0.632351
    13  H    0.203271
    14  H    0.195824
    15  H    0.238915
    16  H    0.190051
    17  H    0.177537
    18  H    0.172844
    19  H    0.175047
    20  H    0.206110
    21  H    0.210254
    22  H    0.167410
    23  H    0.238059
    24  H    0.183975
    25  H    0.382184
 Sum of Mulliken atomic charges =   0.00000

 Dipole moment (field-independent basis, Debye):
    X=              1.3769    Y=             -2.5165    Z=              2.7500  Tot=              3.9738
 Quadrupole moment (field-independent basis, Debye-Ang):
   XX=            -71.1903   YY=            -67.9030   ZZ=            -73.7125
   XY=              5.7791   XZ=             -7.4079   YZ=              1.7713

 Normal termination of Gaussian 09 at Sat Feb 17 20:56:46 2018.
