 Gaussian 09, Revision C.01,
 Gaussian 09:  AM64L-G09RevC.01 23-Sep-2011

 ---------------------------------------------------------
 #B3LYP/6-31G* Integral=(Grid=UltraFine) freq Opt pop=none
 ---------------------------------------------------------

 99/9=1/99;
 ----------------------------
 Optimization for frag8-conf2
 ----------------------------
 Charge =  0 Multiplicity = 1

 SCF Done:  E(RB3LYP) =  -518.890598912     A.U. after   15 cycles
 SCF Done:  E(RB3LYP) =  -518.893257884     A.U. after   13 cycles
 SCF Done:  E(RB3LYP) =  -518.893599450     A.U. after   12 cycles
 SCF Done:  E(RB3LYP) =  -518.893702605     A.U. after   13 cycles
 SCF Done:  E(RB3LYP) =  -518.893902642     A.U. after   11 cycles
 SCF Done:  E(RB3LYP) =  -518.893968922     A.U. after   11 cycles
 SCF Done:  E(RB3LYP) =  -518.893988802     A.U. after   11 cycles
 SCF Done:  E(RB3LYP) =  -518.894001210     A.U. after   11 cycles
 SCF Done:  E(RB3LYP) =  -518.894036058     A.U. after   11 cycles
 SCF Done:  E(RB3LYP) =  -518.894057221     A.U. after   11 cycles
 SCF Done:  E(RB3LYP) =  -518.894075352     A.U. after   10 cycles
 SCF Done:  E(RB3LYP) =  -518.894088536     A.U. after   11 cycles
 SCF Done:  E(RB3LYP) =  -518.894096602     A.U. after   11 cycles
 SCF Done:  E(RB3LYP) =  -518.894097028     A.U. after    8 cycles
 SCF Done:  E(RB3LYP) =  -518.894097085     A.U. after    8 cycles
 Optimization completed.
    -- Stationary point found.
 Normal termination of Gaussian 09 at Fri Feb 16 17:53:33 2018.

 --------------------------------------------------------------------
 #N Geom=AllCheck Guess=TCheck SCRF=Check GenChk RB3LYP/6-31G(d) Freq
 --------------------------------------------------------------------

 Structure from the checkpoint file:  frag8-conf2.chk
 ----------------------------
 Optimization for frag8-conf2
 ----------------------------
 Charge =  0 Multiplicity = 1

                         Standard orientation:
 ---------------------------------------------------------------------
 Center     Atomic      Atomic             Coordinates (Angstroms)
 Number     Number       Type             X           Y           Z
 ---------------------------------------------------------------------
      1          6           0        1.550854    1.853472    0.107717
      2          6           0        2.728262    1.136560    0.335381
      3          6           0        0.394783    1.196726   -0.307249
      4          6           0        1.596198   -0.895759   -0.266738
      5          6           0        2.767898   -0.249955    0.153096
      6          6           0        0.410874   -0.192550   -0.497423
      7          6           0       -2.937158   -0.051878    0.073886
      8          6           0        4.030127   -1.036619    0.423429
      9          6           0       -3.884610   -0.154125    1.260841
     10          6           0       -0.847510   -0.915404   -0.941951
     11          7           0       -1.897346   -0.942373    0.074616
     12          8           0       -3.110415    0.768176   -0.821150
     13          1           0        1.540714    2.931728    0.245599
     14          1           0        3.627068    1.660830    0.652839
     15          1           0       -0.521288    1.750055   -0.495918
     16          1           0        1.613333   -1.973846   -0.423195
     17          1           0        4.063723   -1.394222    1.461538
     18          1           0        4.101180   -1.917180   -0.224310
     19          1           0        4.924912   -0.425987    0.262544
     20          1           0       -3.839410    0.779520    1.831022
     21          1           0       -4.906465   -0.256816    0.884520
     22          1           0       -3.665901   -0.990684    1.932070
     23          1           0       -1.290850   -0.419153   -1.808941
     24          1           0       -0.610043   -1.947270   -1.224958
     25          1           0       -1.730545   -1.488571    0.908149
 ---------------------------------------------------------------------

 SCF Done:  E(RB3LYP) =  -518.894097085     A.U. after    1 cycles

 Isotropic polarizability for W=    0.000000      110.19 Bohr**3.
 End of Minotr Frequency-dependent properties file   721 does not exist.

                     1                      2                      3
                     A                      A                      A
 Frequencies --    24.3998                28.0785                43.7330
 Red. masses --     2.3469                 1.2018                 1.6623
 Frc consts  --     0.0008                 0.0006                 0.0019
 IR Inten    --     0.9070                 0.5502                 0.5122

                     4                      5                      6
                     A                      A                      A
 Frequencies --    52.9798                71.3376               174.3159
 Red. masses --     3.3029                 2.1037                 4.2399
 Frc consts  --     0.0055                 0.0063                 0.0759
 IR Inten    --    12.8658                 1.3745                 2.9899

                     7                      8                      9
                     A                      A                      A
 Frequencies --   198.0195               215.4612               295.5743
 Red. masses --     4.7548                 3.1735                 3.7372
 Frc consts  --     0.1098                 0.0868                 0.1924
 IR Inten    --     4.5932                 0.8023                 1.3670

                    10                     11                     12
                     A                      A                      A
 Frequencies --   312.8752               388.9035               437.3045
 Red. masses --     2.4321                 2.4633                 2.8288
 Frc consts  --     0.1403                 0.2195                 0.3187
 IR Inten    --     3.2350                 1.5892                 3.1445

                    13                     14                     15
                     A                      A                      A
 Frequencies --   459.2073               472.0459               522.1507
 Red. masses --     1.5109                 2.1507                 4.3632
 Frc consts  --     0.1877                 0.2824                 0.7009
 IR Inten    --    77.1529                38.6034                 7.6415

                    16                     17                     18
                     A                      A                      A
 Frequencies --   530.7443               617.0514               619.6598
 Red. masses --     4.6215                 2.7854                 4.1439
 Frc consts  --     0.7670                 0.6248                 0.9375
 IR Inten    --     1.4160                 3.2704                 7.5765

                    19                     20                     21
                     A                      A                      A
 Frequencies --   654.3086               722.1633               757.5010
 Red. masses --     3.2318                 2.7581                 3.3255
 Frc consts  --     0.8152                 0.8475                 1.1243
 IR Inten    --     1.2105                 8.4886                11.9222

                    22                     23                     24
                     A                      A                      A
 Frequencies --   813.2140               861.2357               903.2056
 Red. masses --     1.5227                 2.6420                 1.3709
 Frc consts  --     0.5933                 1.1546                 0.6589
 IR Inten    --    20.2617                 4.0542                 2.3069

                    25                     26                     27
                     A                      A                      A
 Frequencies --   926.7407               932.7722               989.5965
 Red. masses --     2.2065                 1.6483                 1.2971
 Frc consts  --     1.1165                 0.8450                 0.7484
 IR Inten    --     0.6444                 2.5848                 0.9150

                    28                     29                     30
                     A                      A                      A
 Frequencies --  1001.1271              1016.9431              1019.7506
 Red. masses --     1.6598                 5.4500                 1.6826
 Frc consts  --     0.9801                 3.3208                 1.0309
 IR Inten    --     4.2362                 0.1354                 0.9132

                    31                     32                     33
                     A                      A                      A
 Frequencies --  1052.8810              1067.5430              1075.8110
 Red. masses --     2.1221                 1.7085                 1.5234
 Frc consts  --     1.3860                 1.1472                 1.0388
 IR Inten    --     8.1761                 6.9655                 8.2968

                    34                     35                     36
                     A                      A                      A
 Frequencies --  1101.8475              1132.1749              1190.9065
 Red. masses --     3.2157                 1.6073                 1.6459
 Frc consts  --     2.3002                 1.2139                 1.3753
 IR Inten    --    11.5270                 3.9308                 1.6507

                    37                     38                     39
                     A                      A                      A
 Frequencies --  1209.6533              1265.9755              1277.4780
 Red. masses --     1.1401                 1.5157                 3.4713
 Frc consts  --     0.9829                 1.4312                 3.3377
 IR Inten    --     0.8444                20.3910                 5.7911

                    40                     41                     42
                     A                      A                      A
 Frequencies --  1290.4458              1351.8705              1363.3138
 Red. masses --     1.7658                 1.7074                 2.2724
 Frc consts  --     1.7325                 1.8385                 2.4884
 IR Inten    --   142.9519                12.7363                 1.1833

                    43                     44                     45
                     A                      A                      A
 Frequencies --  1398.1823              1425.7668              1442.8662
 Red. masses --     1.3251                 1.2629                 1.2437
 Frc consts  --     1.5262                 1.5125                 1.5256
 IR Inten    --    12.2520                23.1463                 0.0179

                    46                     47                     48
                     A                      A                      A
 Frequencies --  1482.1300              1500.5894              1503.5893
 Red. masses --     2.2543                 1.0590                 1.0967
 Frc consts  --     2.9177                 1.4050                 1.4609
 IR Inten    --    10.0069                14.8429                 7.3455

                    49                     50                     51
                     A                      A                      A
 Frequencies --  1515.7396              1518.4451              1525.4372
 Red. masses --     1.0674                 1.0490                 1.2853
 Frc consts  --     1.4448                 1.4251                 1.7622
 IR Inten    --    16.3676                 6.0940                13.6686

                    52                     53                     54
                     A                      A                      A
 Frequencies --  1542.2424              1556.9045              1647.2528
 Red. masses --     2.0279                 1.8702                 5.2928
 Frc consts  --     2.8419                 2.6710                 8.4617
 IR Inten    --     7.5895               211.5230                 3.2919

                    55                     56                     57
                     A                      A                      A
 Frequencies --  1667.5205              1778.4211              3039.0204
 Red. masses --     5.6399                 8.9771                 1.0412
 Frc consts  --     9.2398                16.7284                 5.6658
 IR Inten    --    15.0956               212.9301                32.5607

                    58                     59                     60
                     A                      A                      A
 Frequencies --  3063.5300              3065.5320              3096.0667
 Red. masses --     1.0358                 1.0662                 1.0949
 Frc consts  --     5.7278                 5.9035                 6.1836
 IR Inten    --     8.6391                34.4401                22.7411

                    61                     62                     63
                     A                      A                      A
 Frequencies --  3123.4327              3133.7806              3135.7029
 Red. masses --     1.1026                 1.0984                 1.1026
 Frc consts  --     6.3379                 6.3555                 6.3874
 IR Inten    --    16.0218                 0.8854                15.9204

                    64                     65                     66
                     A                      A                      A
 Frequencies --  3145.3102              3158.8520              3174.8341
 Red. masses --     1.1019                 1.0894                 1.0869
 Frc consts  --     6.4228                 6.4049                 6.4550
 IR Inten    --    10.9151                22.9622                 9.8374

                    67                     68                     69
                     A                      A                      A
 Frequencies --  3191.9202              3207.2186              3620.8051
 Red. masses --     1.0911                 1.0954                 1.0775
 Frc consts  --     6.5497                 6.6385                 8.3227
 IR Inten    --    18.9615                 9.9816                14.2089

 - Thermochemistry -
 -------------------
 Temperature   298.150 Kelvin.  Pressure   1.00000 Atm.
 Atom     1 has atomic number  6 and mass  12.00000

 Molecular mass:   163.09971 amu.
 Principal axes and moments of inertia in atomic units:
                           1         2         3
     Eigenvalues --   814.617874065.021594407.41231
           X            0.99996  -0.00325  -0.00813
           Y            0.00334   0.99993   0.01099
           Z            0.00810  -0.01102   0.99991
 This molecule is an asymmetric top.
 Rotational symmetry number  1.
 Warning -- assumption of classical behavior for rotation
           may cause significant error
 Rotational temperatures (Kelvin)      0.10632     0.02131     0.01965
 Rotational constants (GHZ):           2.21545     0.44397     0.40948
 Zero-point vibrational energy     556882.0 (Joules/Mol)
                                  133.09798 (Kcal/Mol)
 Warning -- explicit consideration of  18 degrees of freedom as
           vibrations may cause significant error
 Vibrational temperatures:     35.11    40.40    62.92    76.23   102.64
          (Kelvin)            250.80   284.91   310.00   425.26   450.16
                              559.54   629.18   660.70   679.17   751.26
                              763.62   887.80   891.55   941.40  1039.03
                             1089.87  1170.03  1239.12  1299.51  1333.37
                             1342.05  1423.81  1440.40  1463.15  1467.19
                             1514.86  1535.95  1547.85  1585.31  1628.95
                             1713.45  1740.42  1821.45  1838.00  1856.66
                             1945.04  1961.50  2011.67  2051.36  2075.96
                             2132.45  2159.01  2163.33  2180.81  2184.70
                             2194.76  2218.94  2240.04  2370.03  2399.19
                             2558.75  4372.47  4407.73  4410.61  4454.54
                             4493.92  4508.81  4511.57  4525.39  4544.88
                             4567.87  4592.46  4614.47  5209.52

 Zero-point correction=                           0.212105 (Hartree/Particle)
 Thermal correction to Energy=                    0.224560
 Thermal correction to Enthalpy=                  0.225504
 Thermal correction to Gibbs Free Energy=         0.170517
 Sum of electronic and zero-point Energies=           -518.681992
 Sum of electronic and thermal Energies=              -518.669537
 Sum of electronic and thermal Enthalpies=            -518.668593
 Sum of electronic and thermal Free Energies=         -518.723580

                     E (Thermal)             CV                S
                      KCal/Mol        Cal/Mol-Kelvin    Cal/Mol-Kelvin
 Total                  140.914             44.705            115.730
 Electronic               0.000              0.000              0.000
 Translational            0.889              2.981             41.176
 Rotational               0.889              2.981             31.057
 Vibrational            139.136             38.744             43.497
 Vibration     1          0.593              1.985              6.239
 Vibration     2          0.593              1.984              5.961
 Vibration     3          0.595              1.980              5.082
 Vibration     4          0.596              1.976              4.703
 Vibration     5          0.598              1.968              4.116
 Vibration     6          0.627              1.874              2.388
 Vibration     7          0.637              1.843              2.151
 Vibration     8          0.645              1.817              1.997
 Vibration     9          0.690              1.682              1.442
 Vibration    10          0.701              1.649              1.347
 Vibration    11          0.757              1.494              1.004
 Vibration    12          0.798              1.389              0.835
 Vibration    13          0.817              1.341              0.768
 Vibration    14          0.829              1.312              0.732
 Vibration    15          0.877              1.201              0.605
 Vibration    16          0.886              1.182              0.586
 Vibration    17          0.977              0.996              0.421
 Vibration    18          0.980              0.990              0.417

 Normal termination of Gaussian 09 at Fri Feb 16 18:10:16 2018.
