 Gaussian 09, Revision C.01,
 Gaussian 09:  AM64L-G09RevC.01 23-Sep-2011

 ----------------------------------------------------------------------
 #HF/6-31G* Geom=AllCheck Guess=Read Pop=(MK,ReadRadii) Integral=(Grid=
 UltraFine) iop(6/33=2)
 ----------------------------------------------------------------------

 Structure from the checkpoint file:  frag56-conf0.chk
 -----------------------------
 Optimization for frag56-conf0
 -----------------------------
 Charge =  0 Multiplicity = 1

                         Standard orientation:
 ---------------------------------------------------------------------
 Center     Atomic      Atomic             Coordinates (Angstroms)
 Number     Number       Type             X           Y           Z
 ---------------------------------------------------------------------
      1          6           0        1.050802    1.867929    0.275585
      2          6           0        2.364507    1.311494    0.352911
      3          6           0        0.085412    0.971213   -0.095834
      4          6           0        2.369361   -0.016928    0.039014
      5          6           0       -3.305526   -0.308071   -0.041430
      6          6           0       -4.083999   -1.177545    0.934152
      7          6           0       -1.379746    1.227662   -0.304226
      8          7           0       -2.231878    0.358060    0.494245
      9          8           0       -3.618149   -0.214901   -1.221052
     10         16           0        0.780508   -0.617221   -0.360311
     11         17           0        3.739128   -1.078394    0.027052
     12          1           0        0.831411    2.909884    0.487001
     13          1           0        3.253593    1.863833    0.632612
     14          1           0       -5.119848   -0.826258    0.970275
     15          1           0       -4.100598   -2.202729    0.552273
     16          1           0       -3.674339   -1.182459    1.949106
     17          1           0       -1.572338    2.284874   -0.073470
     18          1           0       -1.685077    1.061713   -1.342408
     19          1           0       -2.022633    0.257637    1.477372
 ---------------------------------------------------------------------

 SCF Done:  E(RHF) =  -1256.03211256     A.U. after   15 cycles

 The electronic state is 1-A.
 Alpha  occ. eigenvalues -- -104.84512 -91.98828 -20.52674 -15.59999 -11.36162
 Alpha  occ. eigenvalues --  -11.33206 -11.28923 -11.28611 -11.25937 -11.25739
 Alpha  occ. eigenvalues --  -11.24402 -10.57790  -8.99751  -8.04740  -8.04387
 Alpha  occ. eigenvalues --   -8.04377  -6.67997  -6.67900  -6.67726  -1.37969
 Alpha  occ. eigenvalues --   -1.24013  -1.20315  -1.13108  -1.03858  -0.99954
 Alpha  occ. eigenvalues --   -0.98755  -0.91546  -0.79741  -0.75929  -0.75121
 Alpha  occ. eigenvalues --   -0.70310  -0.67102  -0.65764  -0.62701  -0.59829
 Alpha  occ. eigenvalues --   -0.58253  -0.57942  -0.57270  -0.55660  -0.55116
 Alpha  occ. eigenvalues --   -0.53727  -0.51382  -0.48539  -0.47622  -0.45846
 Alpha  occ. eigenvalues --   -0.42394  -0.39901  -0.36113  -0.32401
 Alpha virt. eigenvalues --    0.10656   0.16402   0.18919   0.19496   0.21032
 Alpha virt. eigenvalues --    0.22077   0.23009   0.26398   0.27578   0.29615
 Alpha virt. eigenvalues --    0.31093   0.31600   0.32303   0.33506   0.37686

 Mulliken atomic charges:
              1
     1  C   -0.181246
     2  C   -0.148810
     3  C   -0.229887
     4  C   -0.345770
     5  C    0.760637
     6  C   -0.577442
     7  C   -0.133921
     8  N   -0.809760
     9  O   -0.618835
    10  S    0.364019
    11  Cl   0.037123
    12  H    0.217750
    13  H    0.233749
    14  H    0.209927
    15  H    0.213043
    16  H    0.168737
    17  H    0.192687
    18  H    0.256794
    19  H    0.391205
 Sum of Mulliken atomic charges =   0.00000

 Dipole moment (field-independent basis, Debye):
    X=              0.0846    Y=              1.8390    Z=              3.8102  Tot=              4.2317
 Quadrupole moment (field-independent basis, Debye-Ang):
   XX=            -84.9530   YY=            -72.7036   ZZ=            -81.8864
   XY=              4.4335   XZ=            -11.6103   YZ=             -0.0038

 Normal termination of Gaussian 09 at Sat Feb 17 21:07:02 2018.
