 Gaussian 09, Revision C.01,
 Gaussian 09:  AM64L-G09RevC.01 23-Sep-2011

 ---------------------------------------------------------
 #B3LYP/6-31G* Integral=(Grid=UltraFine) freq Opt pop=none
 ---------------------------------------------------------

 99/9=1/99;
 -----------------------------
 Optimization for frag56-conf0
 -----------------------------
 Charge =  0 Multiplicity = 1

 SCF Done:  E(RB3LYP) =  -1259.91400606     A.U. after   15 cycles
 SCF Done:  E(RB3LYP) =  -1259.91752631     A.U. after   12 cycles
 SCF Done:  E(RB3LYP) =  -1259.91793215     A.U. after   12 cycles
 SCF Done:  E(RB3LYP) =  -1259.91808697     A.U. after   13 cycles
 SCF Done:  E(RB3LYP) =  -1259.91825786     A.U. after   13 cycles
 SCF Done:  E(RB3LYP) =  -1259.91844178     A.U. after   13 cycles
 SCF Done:  E(RB3LYP) =  -1259.91879519     A.U. after   13 cycles
 SCF Done:  E(RB3LYP) =  -1259.91950608     A.U. after   13 cycles
 SCF Done:  E(RB3LYP) =  -1259.91966587     A.U. after   12 cycles
 SCF Done:  E(RB3LYP) =  -1259.91981747     A.U. after   13 cycles
 SCF Done:  E(RB3LYP) =  -1259.91997749     A.U. after   12 cycles
 SCF Done:  E(RB3LYP) =  -1259.91998672     A.U. after   11 cycles
 SCF Done:  E(RB3LYP) =  -1259.91998966     A.U. after   10 cycles
 SCF Done:  E(RB3LYP) =  -1259.91999044     A.U. after    9 cycles
 SCF Done:  E(RB3LYP) =  -1259.91999133     A.U. after    9 cycles
 SCF Done:  E(RB3LYP) =  -1259.91999428     A.U. after   10 cycles
 SCF Done:  E(RB3LYP) =  -1259.91999748     A.U. after   10 cycles
 SCF Done:  E(RB3LYP) =  -1259.91999779     A.U. after    8 cycles
 SCF Done:  E(RB3LYP) =  -1259.91999783     A.U. after    7 cycles
 Optimization completed.
    -- Stationary point found.
 Normal termination of Gaussian 09 at Fri Feb 16 22:08:32 2018.

 --------------------------------------------------------------------
 #N Geom=AllCheck Guess=TCheck SCRF=Check GenChk RB3LYP/6-31G(d) Freq
 --------------------------------------------------------------------

 Structure from the checkpoint file:  frag56-conf0.chk
 -----------------------------
 Optimization for frag56-conf0
 -----------------------------
 Charge =  0 Multiplicity = 1

                         Standard orientation:
 ---------------------------------------------------------------------
 Center     Atomic      Atomic             Coordinates (Angstroms)
 Number     Number       Type             X           Y           Z
 ---------------------------------------------------------------------
      1          6           0        1.050802    1.867929    0.275585
      2          6           0        2.364507    1.311494    0.352911
      3          6           0        0.085412    0.971213   -0.095834
      4          6           0        2.369361   -0.016928    0.039014
      5          6           0       -3.305526   -0.308071   -0.041430
      6          6           0       -4.083999   -1.177545    0.934152
      7          6           0       -1.379746    1.227662   -0.304226
      8          7           0       -2.231878    0.358060    0.494245
      9          8           0       -3.618149   -0.214901   -1.221052
     10         16           0        0.780508   -0.617221   -0.360311
     11         17           0        3.739128   -1.078394    0.027052
     12          1           0        0.831411    2.909884    0.487001
     13          1           0        3.253593    1.863833    0.632612
     14          1           0       -5.119848   -0.826258    0.970275
     15          1           0       -4.100598   -2.202729    0.552273
     16          1           0       -3.674339   -1.182459    1.949106
     17          1           0       -1.572338    2.284874   -0.073470
     18          1           0       -1.685077    1.061713   -1.342408
     19          1           0       -2.022633    0.257637    1.477372
 ---------------------------------------------------------------------

 SCF Done:  E(RB3LYP) =  -1259.91999783     A.U. after    1 cycles

 Isotropic polarizability for W=    0.000000      107.15 Bohr**3.
 End of Minotr Frequency-dependent properties file   721 does not exist.

                     1                      2                      3
                     A                      A                      A
 Frequencies --    20.2501                30.1009                45.6551
 Red. masses --     4.7930                 4.8138                 1.4211
 Frc consts  --     0.0012                 0.0026                 0.0017
 IR Inten    --     2.7941                 0.5264                 5.4740

                     4                      5                      6
                     A                      A                      A
 Frequencies --    60.2182               136.3090               165.3169
 Red. masses --     3.0338                 5.5230                 7.9832
 Frc consts  --     0.0065                 0.0605                 0.1285
 IR Inten    --     3.4887                 6.3427                 1.5759

                     7                      8                      9
                     A                      A                      A
 Frequencies --   235.6093               255.1774               306.6367
 Red. masses --     9.4822                 4.1393                 5.5021
 Frc consts  --     0.3101                 0.1588                 0.3048
 IR Inten    --     5.0637                 3.4784                 0.7589

                    10                     11                     12
                     A                      A                      A
 Frequencies --   330.4172               430.3513               442.3780
 Red. masses --     3.3450                 6.2680                 1.4853
 Frc consts  --     0.2152                 0.6839                 0.1713
 IR Inten    --     1.5839                17.4405                61.8327

                    13                     14                     15
                     A                      A                      A
 Frequencies --   455.3339               526.4154               568.4496
 Red. masses --     2.6940                 4.1609                 3.5277
 Frc consts  --     0.3291                 0.6794                 0.6716
 IR Inten    --    47.5820                16.4661                 4.2789

                    16                     17                     18
                     A                      A                      A
 Frequencies --   612.7826               630.8705               655.8424
 Red. masses --     4.1818                 2.4822                 7.3585
 Frc consts  --     0.9252                 0.5821                 1.8648
 IR Inten    --     5.5796                 1.2735                 3.3362

                    19                     20                     21
                     A                      A                      A
 Frequencies --   671.9063               742.7147               809.4375
 Red. masses --     4.4971                 6.4748                 1.2440
 Frc consts  --     1.1962                 2.1044                 0.4802
 IR Inten    --     4.4632                 1.2400                34.0731

                    22                     23                     24
                     A                      A                      A
 Frequencies --   885.8534               898.7539               995.4503
 Red. masses --     1.4117                 2.7350                 2.5719
 Frc consts  --     0.6527                 1.3017                 1.5015
 IR Inten    --     0.0758                 1.8564                53.3830

                    25                     26                     27
                     A                      A                      A
 Frequencies --  1006.2035              1041.0930              1067.9465
 Red. masses --     2.1303                 2.5734                 1.7045
 Frc consts  --     1.2708                 1.6434                 1.1454
 IR Inten    --     9.3628                18.5653                 4.8926

                    28                     29                     30
                     A                      A                      A
 Frequencies --  1085.0334              1111.6647              1180.9460
 Red. masses --     1.7091                 3.7343                 4.1907
 Frc consts  --     1.1855                 2.7190                 3.4435
 IR Inten    --    14.2149                12.8433                18.1741

                    31                     32                     33
                     A                      A                      A
 Frequencies --  1239.3166              1263.3639              1283.0660
 Red. masses --     1.2946                 1.6211                 1.4568
 Frc consts  --     1.1715                 1.5244                 1.4131
 IR Inten    --     1.0673                58.3261               132.9072

                    34                     35                     36
                     A                      A                      A
 Frequencies --  1356.2915              1400.1588              1427.3129
 Red. masses --     2.0215                 1.5750                 1.2643
 Frc consts  --     2.1909                 1.8192                 1.5176
 IR Inten    --     7.1594                12.0199                22.4640

                    37                     38                     39
                     A                      A                      A
 Frequencies --  1500.8575              1511.1107              1515.6080
 Red. masses --     1.0456                 5.8989                 1.1003
 Frc consts  --     1.3877                 7.9362                 1.4891
 IR Inten    --     5.2291                67.5482                23.4273

                    40                     41                     42
                     A                      A                      A
 Frequencies --  1520.4151              1549.5889              1612.6309
 Red. masses --     1.0855                 1.9792                 5.6954
 Frc consts  --     1.4784                 2.8002                 8.7266
 IR Inten    --    13.9492               261.1618                 7.0782

                    43                     44                     45
                     A                      A                      A
 Frequencies --  1788.1342              3033.7042              3065.2705
 Red. masses --     9.3241                 1.0694                 1.0357
 Frc consts  --    17.5653                 5.7986                 5.7334
 IR Inten    --   257.1137                34.1631                 7.9786

                    46                     47                     48
                     A                      A                      A
 Frequencies --  3108.5877              3140.5627              3143.5521
 Red. masses --     1.0930                 1.1034                 1.1017
 Frc consts  --     6.2232                 6.4118                 6.4143
 IR Inten    --     6.2057                16.3453                 7.6979

                    49                     50                     51
                     A                      A                      A
 Frequencies --  3214.7900              3245.7826              3627.5776
 Red. masses --     1.0913                 1.0958                 1.0779
 Frc consts  --     6.6452                 6.8017                 8.3569
 IR Inten    --     7.4523                 1.6449                18.9676

 - Thermochemistry -
 -------------------
 Temperature   298.150 Kelvin.  Pressure   1.00000 Atm.
 Atom     1 has atomic number  6 and mass  12.00000

 Molecular mass:   189.00151 amu.
 Principal axes and moments of inertia in atomic units:
                           1         2         3
     Eigenvalues --   875.084115075.282225557.36276
           X            0.99975   0.01969  -0.01027
           Y           -0.01992   0.99956  -0.02213
           Z            0.00983   0.02233   0.99970
 This molecule is an asymmetric top.
 Rotational symmetry number  1.
 Warning -- assumption of classical behavior for rotation
           may cause significant error
 Rotational temperatures (Kelvin)      0.09898     0.01707     0.01559
 Rotational constants (GHZ):           2.06236     0.35559     0.32475
 Zero-point vibrational energy     370560.0 (Joules/Mol)
                                   88.56597 (Kcal/Mol)
 Warning -- explicit consideration of  16 degrees of freedom as
           vibrations may cause significant error
 Vibrational temperatures:     29.14    43.31    65.69    86.64   196.12
          (Kelvin)            237.85   338.99   367.14   441.18   475.40
                              619.18   636.48   655.12   757.39   817.87
                              881.66   907.68   943.61   966.72  1068.60
                             1164.60  1274.54  1293.10  1432.23  1447.70
                             1497.90  1536.53  1561.12  1599.44  1699.12
                             1783.10  1817.70  1846.04  1951.40  2014.51
                             2053.58  2159.40  2174.15  2180.62  2187.54
                             2229.51  2320.21  2572.72  4364.82  4410.24
                             4472.56  4518.56  4522.86  4625.36  4669.95
                             5219.27

 Zero-point correction=                           0.141139 (Hartree/Particle)
 Thermal correction to Energy=                    0.152793
 Thermal correction to Enthalpy=                  0.153737
 Thermal correction to Gibbs Free Energy=         0.099977
 Sum of electronic and zero-point Energies=          -1259.778859
 Sum of electronic and thermal Energies=             -1259.767205
 Sum of electronic and thermal Enthalpies=           -1259.766261
 Sum of electronic and thermal Free Energies=        -1259.820021

                     E (Thermal)             CV                S
                      KCal/Mol        Cal/Mol-Kelvin    Cal/Mol-Kelvin
 Total                   95.879             40.535            113.148
 Electronic               0.000              0.000              0.000
 Translational            0.889              2.981             41.616
 Rotational               0.889              2.981             31.579
 Vibrational             94.102             34.574             39.954
 Vibration     1          0.593              1.986              6.610
 Vibration     2          0.594              1.984              5.823
 Vibration     3          0.595              1.979              4.997
 Vibration     4          0.597              1.973              4.450
 Vibration     5          0.614              1.917              2.855
 Vibration     6          0.624              1.885              2.488
 Vibration     7          0.655              1.786              1.836
 Vibration     8          0.666              1.754              1.695
 Vibration     9          0.697              1.661              1.380
 Vibration    10          0.713              1.615              1.258
 Vibration    11          0.792              1.404              0.858
 Vibration    12          0.802              1.378              0.819
 Vibration    13          0.814              1.349              0.780
 Vibration    14          0.881              1.192              0.595
 Vibration    15          0.924              1.100              0.507
 Vibration    16          0.972              1.005              0.428

 Optimization completed.
    -- Stationary point found.
 Normal termination of Gaussian 09 at Fri Feb 16 22:19:53 2018.
