 Gaussian 09, Revision C.01,
 Gaussian 09:  AM64L-G09RevC.01 23-Sep-2011

 ----------------------------------------------------------------------
 #HF/6-31G* Geom=AllCheck Guess=Read Pop=(MK,ReadRadii) Integral=(Grid=
 UltraFine) iop(6/33=2)
 ----------------------------------------------------------------------

 Structure from the checkpoint file:  frag55-conf2.chk
 -----------------------------
 Optimization for frag55-conf2
 -----------------------------
 Charge =  0 Multiplicity = 1

                         Standard orientation:
 ---------------------------------------------------------------------
 Center     Atomic      Atomic             Coordinates (Angstroms)
 Number     Number       Type             X           Y           Z
 ---------------------------------------------------------------------
      1          6           0        1.340101    1.498291    0.063478
      2          6           0        0.594413   -0.694858   -0.583139
      3          6           0        2.607038    0.996986    0.355690
      4          6           0        1.855252   -1.210579   -0.293349
      5          6           0        0.316151    0.667816   -0.407189
      6          6           0        2.866707   -0.364566    0.177873
      7          6           0       -2.891319   -0.276399    0.056203
      8          6           0       -3.829590   -0.618586    1.204971
      9          6           0       -1.065543    1.214135   -0.709272
     10          7           0       -2.088203    0.812770    0.257688
     11          8           0       -2.875359   -0.932614   -0.980246
     12          8           0        4.124413   -0.812921    0.477091
     13          1           0        1.148581    2.560876    0.200583
     14          1           0       -0.188293   -1.352632   -0.951419
     15          1           0        3.401402    1.642194    0.717578
     16          1           0        2.057642   -2.270671   -0.438951
     17          1           0       -4.849447   -0.684469    0.815143
     18          1           0       -3.565599   -1.606883    1.595486
     19          1           0       -3.807715    0.104976    2.026031
     20          1           0       -1.038380    2.309092   -0.743956
     21          1           0       -1.420110    0.854466   -1.678299
     22          1           0       -2.039797    1.210366    1.185390
     23          1           0        4.167435   -1.765863    0.302234
 ---------------------------------------------------------------------

 SCF Done:  E(RHF) =  -551.405326425     A.U. after   14 cycles

 The electronic state is 1-A.
 Alpha  occ. eigenvalues --  -20.59546 -20.52070 -15.58958 -11.35473 -11.30413
 Alpha  occ. eigenvalues --  -11.26913 -11.24276 -11.23969 -11.23907 -11.23548
 Alpha  occ. eigenvalues --  -11.23380 -11.22983  -1.40041  -1.37203  -1.22746
 Alpha  occ. eigenvalues --   -1.14561  -1.03814  -1.01673  -0.99697  -0.91826
 Alpha  occ. eigenvalues --   -0.84448  -0.80683  -0.78390  -0.72960  -0.68947
 Alpha  occ. eigenvalues --   -0.67660  -0.65043  -0.64058  -0.61422  -0.59957
 Alpha  occ. eigenvalues --   -0.58627  -0.58482  -0.58010  -0.57141  -0.55714
 Alpha  occ. eigenvalues --   -0.53301  -0.53171  -0.49691  -0.48567  -0.47352
 Alpha  occ. eigenvalues --   -0.41807  -0.38827  -0.33950  -0.30572
 Alpha virt. eigenvalues --    0.13663   0.15177   0.19692   0.21546   0.21939
 Alpha virt. eigenvalues --    0.24803   0.26581   0.28428   0.29658   0.31358
 Alpha virt. eigenvalues --    0.32224   0.33297   0.33890   0.35217   0.35999

 Mulliken atomic charges:
              1
     1  C   -0.211682
     2  C   -0.207342
     3  C   -0.245667
     4  C   -0.285300
     5  C   -0.002338
     6  C    0.410609
     7  C    0.762524
     8  C   -0.575523
     9  C   -0.164557
    10  N   -0.787712
    11  O   -0.634670
    12  O   -0.762415
    13  H    0.199810
    14  H    0.249981
    15  H    0.218442
    16  H    0.196226
    17  H    0.210517
    18  H    0.205340
    19  H    0.168027
    20  H    0.183991
    21  H    0.233944
    22  H    0.381469
    23  H    0.456325
 Sum of Mulliken atomic charges =   0.00000

 Dipole moment (field-independent basis, Debye):
    X=             -0.1376    Y=              0.8075    Z=              2.6454  Tot=              2.7693
 Quadrupole moment (field-independent basis, Debye-Ang):
   XX=            -74.3218   YY=            -62.1517   ZZ=            -73.2540
   XY=             -9.9610   XZ=            -10.4940   YZ=             -0.7099

 Normal termination of Gaussian 09 at Sat Feb 17 21:07:01 2018.
