 Gaussian 09, Revision C.01,
 Gaussian 09:  AM64L-G09RevC.01 23-Sep-2011

 ---------------------------------------------------------
 #B3LYP/6-31G* Integral=(Grid=UltraFine) freq Opt pop=none
 ---------------------------------------------------------

 99/9=1/99;
 -----------------------------
 Optimization for frag55-conf2
 -----------------------------
 Charge =  0 Multiplicity = 1

 SCF Done:  E(RB3LYP) =  -554.788707455     A.U. after   15 cycles
 SCF Done:  E(RB3LYP) =  -554.791522097     A.U. after   12 cycles
 SCF Done:  E(RB3LYP) =  -554.791887943     A.U. after   12 cycles
 SCF Done:  E(RB3LYP) =  -554.792123138     A.U. after   12 cycles
 SCF Done:  E(RB3LYP) =  -554.792179345     A.U. after   11 cycles
 SCF Done:  E(RB3LYP) =  -554.792208879     A.U. after   11 cycles
 SCF Done:  E(RB3LYP) =  -554.792229594     A.U. after    9 cycles
 SCF Done:  E(RB3LYP) =  -554.792256582     A.U. after   11 cycles
 SCF Done:  E(RB3LYP) =  -554.792300833     A.U. after   11 cycles
 SCF Done:  E(RB3LYP) =  -554.792338607     A.U. after   11 cycles
 SCF Done:  E(RB3LYP) =  -554.792382443     A.U. after   10 cycles
 SCF Done:  E(RB3LYP) =  -554.792400755     A.U. after    9 cycles
 SCF Done:  E(RB3LYP) =  -554.792421385     A.U. after   10 cycles
 SCF Done:  E(RB3LYP) =  -554.792435780     A.U. after   11 cycles
 SCF Done:  E(RB3LYP) =  -554.792441464     A.U. after   10 cycles
 SCF Done:  E(RB3LYP) =  -554.792441798     A.U. after    8 cycles
 Optimization completed.
    -- Stationary point found.
 Normal termination of Gaussian 09 at Fri Feb 16 22:02:41 2018.

 --------------------------------------------------------------------
 #N Geom=AllCheck Guess=TCheck SCRF=Check GenChk RB3LYP/6-31G(d) Freq
 --------------------------------------------------------------------

 Structure from the checkpoint file:  frag55-conf2.chk
 -----------------------------
 Optimization for frag55-conf2
 -----------------------------
 Charge =  0 Multiplicity = 1

                         Standard orientation:
 ---------------------------------------------------------------------
 Center     Atomic      Atomic             Coordinates (Angstroms)
 Number     Number       Type             X           Y           Z
 ---------------------------------------------------------------------
      1          6           0        1.340101    1.498291    0.063478
      2          6           0        0.594413   -0.694858   -0.583139
      3          6           0        2.607038    0.996986    0.355690
      4          6           0        1.855252   -1.210579   -0.293349
      5          6           0        0.316151    0.667816   -0.407189
      6          6           0        2.866707   -0.364566    0.177873
      7          6           0       -2.891319   -0.276399    0.056203
      8          6           0       -3.829590   -0.618586    1.204971
      9          6           0       -1.065543    1.214135   -0.709272
     10          7           0       -2.088203    0.812770    0.257688
     11          8           0       -2.875359   -0.932614   -0.980246
     12          8           0        4.124413   -0.812921    0.477091
     13          1           0        1.148581    2.560876    0.200583
     14          1           0       -0.188293   -1.352632   -0.951419
     15          1           0        3.401402    1.642194    0.717578
     16          1           0        2.057642   -2.270671   -0.438951
     17          1           0       -4.849447   -0.684469    0.815143
     18          1           0       -3.565599   -1.606883    1.595486
     19          1           0       -3.807715    0.104976    2.026031
     20          1           0       -1.038380    2.309092   -0.743956
     21          1           0       -1.420110    0.854466   -1.678299
     22          1           0       -2.039797    1.210366    1.185390
     23          1           0        4.167435   -1.765863    0.302234
 ---------------------------------------------------------------------

 SCF Done:  E(RB3LYP) =  -554.792441798     A.U. after    1 cycles

 Isotropic polarizability for W=    0.000000      102.62 Bohr**3.
 End of Minotr Frequency-dependent properties file   721 does not exist.

                     1                      2                      3
                     A                      A                      A
 Frequencies --    31.1590                46.9101                54.9256
 Red. masses --     3.3130                 1.6781                 5.3661
 Frc consts  --     0.0019                 0.0022                 0.0095
 IR Inten    --     1.8619                 2.5380                14.7123

                     4                      5                      6
                     A                      A                      A
 Frequencies --    64.6939               137.0030               212.0361
 Red. masses --     1.9311                 4.7477                 6.2568
 Frc consts  --     0.0048                 0.0525                 0.1657
 IR Inten    --     0.3374                 2.6440                 4.4657

                     7                      8                      9
                     A                      A                      A
 Frequencies --   250.9823               327.1531               355.8225
 Red. masses --     5.4843                 2.3553                 2.8750
 Frc consts  --     0.2035                 0.1485                 0.2145
 IR Inten    --     0.6677                 4.5420                11.1833

                    10                     11                     12
                     A                      A                      A
 Frequencies --   362.8843               421.0170               424.9153
 Red. masses --     1.2108                 3.5600                 3.1683
 Frc consts  --     0.0939                 0.3718                 0.3370
 IR Inten    --   109.3464                 8.5407                 0.1843

                    13                     14                     15
                     A                      A                      A
 Frequencies --   457.1438               463.7666               501.7553
 Red. masses --     1.4376                 2.6231                 3.7063
 Frc consts  --     0.1770                 0.3324                 0.5498
 IR Inten    --    89.8560                23.6879                15.8242

                    16                     17                     18
                     A                      A                      A
 Frequencies --   572.5697               612.8035               644.7499
 Red. masses --     3.1521                 3.1366                 2.6762
 Frc consts  --     0.6088                 0.6940                 0.6555
 IR Inten    --    27.3989                 0.2744                 3.2556

                    19                     20                     21
                     A                      A                      A
 Frequencies --   656.3376               726.5069               781.6749
 Red. masses --     6.0790                 4.2386                 4.0332
 Frc consts  --     1.5429                 1.3181                 1.4520
 IR Inten    --     0.3717                 1.0133                11.1883

                    22                     23                     24
                     A                      A                      A
 Frequencies --   825.2672               844.4076               857.1775
 Red. masses --     1.3138                 1.8351                 3.0210
 Frc consts  --     0.5272                 0.7709                 1.3078
 IR Inten    --     7.7254                28.6134                 1.2330

                    25                     26                     27
                     A                      A                      A
 Frequencies --   865.0936               952.1966               969.2138
 Red. masses --     3.6779                 1.3076                 1.3081
 Frc consts  --     1.6217                 0.6985                 0.7240
 IR Inten    --    20.7060                 0.3278                 2.1696

                    28                     29                     30
                     A                      A                      A
 Frequencies --   999.8084              1032.5041              1036.4972
 Red. masses --     1.6802                 2.7087                 2.5443
 Frc consts  --     0.9895                 1.7014                 1.6105
 IR Inten    --     2.8858                 2.1609                 6.2789

                    31                     32                     33
                     A                      A                      A
 Frequencies --  1067.3286              1096.0790              1138.8076
 Red. masses --     1.7025                 3.1474                 1.3380
 Frc consts  --     1.1427                 2.2279                 1.0224
 IR Inten    --     6.5745                16.7958                17.5363

                    34                     35                     36
                     A                      A                      A
 Frequencies --  1208.3110              1210.7439              1234.3563
 Red. masses --     1.1638                 1.3663                 2.9246
 Frc consts  --     1.0011                 1.1800                 2.6254
 IR Inten    --    69.0312               127.7557                 0.7710

                    37                     38                     39
                     A                      A                      A
 Frequencies --  1267.7674              1290.9134              1308.4176
 Red. masses --     1.4530                 1.9185                 3.2620
 Frc consts  --     1.3759                 1.8837                 3.2902
 IR Inten    --    20.9413               174.3402                67.9269

                    40                     41                     42
                     A                      A                      A
 Frequencies --  1365.6384              1384.2751              1401.2965
 Red. masses --     1.5644                 2.1908                 1.3442
 Frc consts  --     1.7189                 2.4734                 1.5552
 IR Inten    --    22.9589                24.7508                16.0397

                    43                     44                     45
                     A                      A                      A
 Frequencies --  1425.7275              1489.7070              1500.1937
 Red. masses --     1.2636                 2.6589                 1.0744
 Frc consts  --     1.5133                 3.4766                 1.4247
 IR Inten    --    21.4014                23.9514                20.3635

                    46                     47                     48
                     A                      A                      A
 Frequencies --  1502.3100              1515.5758              1555.5823
 Red. masses --     1.0788                 1.0676                 1.9029
 Frc consts  --     1.4345                 1.4449                 2.7131
 IR Inten    --     2.7821                16.6053               177.7289

                    49                     50                     51
                     A                      A                      A
 Frequencies --  1565.4583              1651.4187              1676.0424
 Red. masses --     2.6139                 5.7509                 5.8209
 Frc consts  --     3.7742                 9.2407                 9.6341
 IR Inten    --   124.0113                11.8705                48.8645

                    52                     53                     54
                     A                      A                      A
 Frequencies --  1776.0195              3063.4548              3068.0031
 Red. masses --     8.9263                 1.0357                 1.0660
 Frc consts  --    16.5889                 5.7269                 5.9121
 IR Inten    --   206.8817                 8.8897                35.6602

                    55                     56                     57
                     A                      A                      A
 Frequencies --  3134.6480              3135.6019              3145.0944
 Red. masses --     1.0996                 1.1019                 1.1020
 Frc consts  --     6.3658                 6.3829                 6.4225
 IR Inten    --     0.4679                15.9974                11.3142

                    58                     59                     60
                     A                      A                      A
 Frequencies --  3165.0929              3173.4841              3205.3761
 Red. masses --     1.0893                 1.0889                 1.0929
 Frc consts  --     6.4292                 6.4612                 6.6157
 IR Inten    --    24.1499                13.6574                 2.5630

                    61                     62                     63
                     A                      A                      A
 Frequencies --  3214.6782              3619.5962              3749.5954
 Red. masses --     1.0928                 1.0775                 1.0659
 Frc consts  --     6.6539                 8.3174                 8.8298
 IR Inten    --     8.9928                14.2911                43.2770

 - Thermochemistry -
 -------------------
 Temperature   298.150 Kelvin.  Pressure   1.00000 Atm.
 Atom     1 has atomic number  6 and mass  12.00000

 Molecular mass:   165.07898 amu.
 Principal axes and moments of inertia in atomic units:
                           1         2         3
     Eigenvalues --   794.560764153.721754475.56911
           X            0.99992  -0.00094  -0.01298
           Y            0.00077   0.99992  -0.01271
           Z            0.01299   0.01270   0.99983
 This molecule is an asymmetric top.
 Rotational symmetry number  1.
 Warning -- assumption of classical behavior for rotation
           may cause significant error
 Rotational temperatures (Kelvin)      0.10901     0.02085     0.01935
 Rotational constants (GHZ):           2.27137     0.43449     0.40324
 Zero-point vibrational energy     495227.5 (Joules/Mol)
                                  118.36221 (Kcal/Mol)
 Warning -- explicit consideration of  17 degrees of freedom as
           vibrations may cause significant error
 Vibrational temperatures:     44.83    67.49    79.03    93.08   197.12
          (Kelvin)            305.07   361.11   470.70   511.95   522.11
                              605.75   611.36   657.73   667.26   721.91
                              823.80   881.69   927.65   944.32  1045.28
                             1124.65  1187.37  1214.91  1233.29  1244.68
                             1370.00  1394.48  1438.50  1485.54  1491.29
                             1535.65  1577.01  1638.49  1738.49  1741.99
                             1775.96  1824.03  1857.33  1882.52  1964.85
                             1991.66  2016.15  2051.30  2143.35  2158.44
                             2161.49  2180.57  2238.13  2252.34  2376.02
                             2411.45  2555.29  4407.62  4414.17  4510.05
                             4511.43  4525.08  4553.86  4565.93  4611.82
                             4625.20  5207.79  5394.82

 Zero-point correction=                           0.188622 (Hartree/Particle)
 Thermal correction to Energy=                    0.200346
 Thermal correction to Enthalpy=                  0.201290
 Thermal correction to Gibbs Free Energy=         0.149092
 Sum of electronic and zero-point Energies=           -554.603820
 Sum of electronic and thermal Energies=              -554.592096
 Sum of electronic and thermal Enthalpies=            -554.591151
 Sum of electronic and thermal Free Energies=         -554.643350

                     E (Thermal)             CV                S
                      KCal/Mol        Cal/Mol-Kelvin    Cal/Mol-Kelvin
 Total                  125.719             43.328            109.860
 Electronic               0.000              0.000              0.000
 Translational            0.889              2.981             41.212
 Rotational               0.889              2.981             31.069
 Vibrational            123.942             37.366             37.579
 Vibration     1          0.594              1.983              5.754
 Vibration     2          0.595              1.979              4.944
 Vibration     3          0.596              1.976              4.632
 Vibration     4          0.597              1.971              4.309
 Vibration     5          0.614              1.916              2.845
 Vibration     6          0.643              1.823              2.026
 Vibration     7          0.663              1.761              1.724
 Vibration     8          0.711              1.621              1.274
 Vibration     9          0.731              1.563              1.140
 Vibration    10          0.737              1.549              1.110
 Vibration    11          0.784              1.425              0.889
 Vibration    12          0.787              1.416              0.875
 Vibration    13          0.815              1.345              0.774
 Vibration    14          0.821              1.330              0.755
 Vibration    15          0.857              1.246              0.654
 Vibration    16          0.929              1.091              0.499
 Vibration    17          0.972              1.005              0.428

 Normal termination of Gaussian 09 at Fri Feb 16 22:17:07 2018.
