 Gaussian 09, Revision C.01,
 Gaussian 09:  AM64L-G09RevC.01 23-Sep-2011

 ----------------------------------------------------------------------
 #HF/6-31G* Geom=AllCheck Guess=Read Pop=(MK,ReadRadii) Integral=(Grid=
 UltraFine) iop(6/33=2)
 ----------------------------------------------------------------------

 Structure from the checkpoint file:  frag57-conf1.chk
 -----------------------------
 Optimization for frag57-conf1
 -----------------------------
 Charge =  0 Multiplicity = 1

                         Standard orientation:
 ---------------------------------------------------------------------
 Center     Atomic      Atomic             Coordinates (Angstroms)
 Number     Number       Type             X           Y           Z
 ---------------------------------------------------------------------
      1          6           0       -2.704312   -1.313180    0.456741
      2          6           0       -1.441155   -1.747475    0.041519
      3          6           0       -3.027796    0.039577    0.452592
      4          6           0       -0.811179    0.545474   -0.394156
      5          6           0       -0.488479   -0.818425   -0.384867
      6          6           0       -2.073313    0.971113    0.023290
      7          6           0        2.667250    0.248323    0.020788
      8          6           0        3.675530    0.496208    1.133373
      9          6           0        0.894726   -1.262357   -0.825003
     10          7           0        1.956266   -0.915601    0.119758
     11          8           0        2.519802    1.040799   -0.904804
     12          8           0       -2.436235    2.289843    0.030159
     13          1           0       -3.444142   -2.038255    0.785753
     14          1           0       -1.201207   -2.808081    0.044915
     15          1           0       -4.003835    0.393087    0.769575
     16          1           0       -0.066856    1.265524   -0.729364
     17          1           0        4.651292    0.697260    0.681912
     18          1           0        3.380477    1.394408    1.685734
     19          1           0        3.772724   -0.336745    1.836729
     20          1           0        0.912113   -2.347281   -0.973988
     21          1           0        1.167330   -0.785431   -1.769803
     22          1           0        2.013786   -1.445179    0.978273
     23          1           0       -1.691726    2.819222   -0.296555
 ---------------------------------------------------------------------

 SCF Done:  E(RHF) =  -551.406569933     A.U. after   14 cycles

 The electronic state is 1-A.
 Alpha  occ. eigenvalues --  -20.59147 -20.52495 -15.59450 -11.35887 -11.30172
 Alpha  occ. eigenvalues --  -11.27386 -11.24736 -11.24271 -11.24143 -11.22895
 Alpha  occ. eigenvalues --  -11.22783 -11.22721  -1.39680  -1.37617  -1.23217
 Alpha  occ. eigenvalues --   -1.14437  -1.04484  -1.00479  -1.00003  -0.92743
 Alpha  occ. eigenvalues --   -0.83775  -0.80801  -0.78531  -0.72282  -0.69767
 Alpha  occ. eigenvalues --   -0.67615  -0.65243  -0.64147  -0.62285  -0.59848
 Alpha  occ. eigenvalues --   -0.58668  -0.58194  -0.57982  -0.56895  -0.55900
 Alpha  occ. eigenvalues --   -0.53773  -0.51933  -0.50218  -0.49052  -0.47263
 Alpha  occ. eigenvalues --   -0.42237  -0.39239  -0.33201  -0.30920
 Alpha virt. eigenvalues --    0.13322   0.15924   0.19207   0.21366   0.22686
 Alpha virt. eigenvalues --    0.24659   0.26427   0.28442   0.30104   0.31134
 Alpha virt. eigenvalues --    0.32139   0.33249   0.33567   0.34635   0.36050

 Mulliken atomic charges:
              1
     1  C   -0.180394
     2  C   -0.257365
     3  C   -0.248822
     4  C   -0.325224
     5  C    0.044132
     6  C    0.422519
     7  C    0.764895
     8  C   -0.575678
     9  C   -0.167368
    10  N   -0.788816
    11  O   -0.636460
    12  O   -0.764678
    13  H    0.205100
    14  H    0.192623
    15  H    0.218482
    16  H    0.242987
    17  H    0.211645
    18  H    0.206357
    19  H    0.169341
    20  H    0.188618
    21  H    0.233850
    22  H    0.384499
    23  H    0.459758
 Sum of Mulliken atomic charges =   0.00000

 Dipole moment (field-independent basis, Debye):
    X=              1.3558    Y=             -2.5415    Z=              2.3102  Tot=              3.6925
 Quadrupole moment (field-independent basis, Debye-Ang):
   XX=            -71.2776   YY=            -65.7648   ZZ=            -72.4608
   XY=             -0.8515   XZ=              6.9293   YZ=             -0.2793

 Normal termination of Gaussian 09 at Sat Feb 17 21:08:02 2018.
