 Gaussian 09, Revision C.01,
 Gaussian 09:  AM64L-G09RevC.01 23-Sep-2011

 ----------------------------------------------------------------------
 #HF/6-31G* Geom=AllCheck Guess=Read Pop=(MK,ReadRadii) Integral=(Grid=
 UltraFine) iop(6/33=2)
 ----------------------------------------------------------------------

 Structure from the checkpoint file:  frag0-conf0.chk
 ----------------------------
 Optimization for frag0-conf0
 ----------------------------
 Charge =  0 Multiplicity = 1

                         Standard orientation:
 ---------------------------------------------------------------------
 Center     Atomic      Atomic             Coordinates (Angstroms)
 Number     Number       Type             X           Y           Z
 ---------------------------------------------------------------------
      1          6           0       -1.401925    0.208581   -0.210255
      2          6           0        1.381789   -1.688739   -0.038419
      3          6           0        0.751554    2.512318    0.401026
      4          6           0        2.012245    1.902777   -0.223777
      5          6           0        0.116921    1.506525    1.368206
      6          6           0        1.694542    0.576771   -0.917888
      7          6           0       -0.166939    0.132351    0.713495
      8          6           0        0.599171   -2.672242    0.828866
      9          6           0       -3.795264   -0.392963   -0.414528
     10          7           0        1.011982   -0.358946   -0.004383
     11          7           0       -2.519205   -0.408594    0.281617
     12          8           0       -1.385299    0.790814   -1.289723
     13          8           0        2.318446   -2.084837   -0.723382
     14          1           0        0.992770    3.436428    0.940667
     15          1           0        0.035341    2.769251   -0.387376
     16          1           0        2.451248    2.589376   -0.957843
     17          1           0        2.768895    1.735741    0.555741
     18          1           0        0.801496    1.331560    2.209102
     19          1           0       -0.818248    1.896788    1.789354
     20          1           0        1.051458    0.753802   -1.787110
     21          1           0        2.599283    0.070933   -1.253701
     22          1           0       -0.379444   -0.569621    1.522782
     23          1           0       -0.467105   -2.686682    0.575975
     24          1           0        0.692755   -2.443812    1.897377
     25          1           0        1.019213   -3.661703    0.646067
     26          1           0       -3.635360    0.104454   -1.371953
     27          1           0       -4.553549    0.158139    0.154561
     28          1           0       -4.156300   -1.411886   -0.593126
     29          1           0       -2.469641   -0.860077    1.183337
 ---------------------------------------------------------------------

 SCF Done:  E(RHF) =  -608.781197354     A.U. after   14 cycles

 The electronic state is 1-A.
 Alpha  occ. eigenvalues --  -20.53298 -20.51796 -15.60517 -15.58805 -11.36150
 Alpha  occ. eigenvalues --  -11.35134 -11.29547 -11.26950 -11.24331 -11.24295
 Alpha  occ. eigenvalues --  -11.24061 -11.22309 -11.22037  -1.38545  -1.36904
 Alpha  occ. eigenvalues --   -1.24446  -1.23594  -1.08150  -1.04584  -1.00286
 Alpha  occ. eigenvalues --   -0.96628  -0.90732  -0.86588  -0.80329  -0.79529
 Alpha  occ. eigenvalues --   -0.75201  -0.69692  -0.68363  -0.64910  -0.64610
 Alpha  occ. eigenvalues --   -0.62828  -0.61981  -0.61390  -0.60066  -0.59266
 Alpha  occ. eigenvalues --   -0.58457  -0.56246  -0.55561  -0.55378  -0.53978
 Alpha  occ. eigenvalues --   -0.52412  -0.51911  -0.50023  -0.47537  -0.46681
 Alpha  occ. eigenvalues --   -0.45958  -0.43082  -0.40985  -0.39778  -0.35686
 Alpha virt. eigenvalues --    0.18117   0.18620   0.19900   0.24123   0.25244
 Alpha virt. eigenvalues --    0.26251   0.27791   0.28403   0.29379   0.30020
 Alpha virt. eigenvalues --    0.31275   0.31562   0.31693   0.32375   0.33316

 Mulliken atomic charges:
              1
     1  C    0.804036
     2  C    0.775100
     3  C   -0.331518
     4  C   -0.323896
     5  C   -0.314016
     6  C   -0.121427
     7  C   -0.075771
     8  C   -0.604843
     9  C   -0.290728
    10  N   -0.690418
    11  N   -0.804523
    12  O   -0.630798
    13  O   -0.619775
    14  H    0.165737
    15  H    0.201181
    16  H    0.171167
    17  H    0.158450
    18  H    0.174657
    19  H    0.172942
    20  H    0.207772
    21  H    0.230883
    22  H    0.189235
    23  H    0.180230
    24  H    0.184690
    25  H    0.225890
    26  H    0.235673
    27  H    0.171054
    28  H    0.173439
    29  H    0.385577
 Sum of Mulliken atomic charges =   0.00000

 Dipole moment (field-independent basis, Debye):
    X=             -3.9271    Y=              0.3820    Z=              4.6857  Tot=              6.1257
 Quadrupole moment (field-independent basis, Debye-Ang):
   XX=            -79.2403   YY=            -81.2080   ZZ=            -80.2170
   XY=             12.1928   XZ=             -1.0221   YZ=             -3.5272

 Normal termination of Gaussian 09 at Sun Feb 18 17:07:18 2018.
