 Gaussian 09, Revision C.01,
 Gaussian 09:  AM64L-G09RevC.01 23-Sep-2011

 ----------------------------------------------------------------------
 #B3LYP/6-31G* Integral=(Grid=UltraFine) freq Opt pop=none Geom=AllChec
 k Guess=Read
 ----------------------------------------------------------------------

 Structure from the checkpoint file:  frag0-conf0.chk
 ----------------------------
 Optimization for frag0-conf0
 ----------------------------
 Charge =  0 Multiplicity = 1

 SCF Done:  E(RB3LYP) =  -612.575843116     A.U. after    2 cycles
 Optimization completed.
    -- Stationary point found.
 Normal termination of Gaussian 09 at Sat Feb 17 20:54:44 2018.

 --------------------------------------------------------------------
 #N Geom=AllCheck Guess=TCheck SCRF=Check GenChk RB3LYP/6-31G(d) Freq
 --------------------------------------------------------------------

 Structure from the checkpoint file:  frag0-conf0.chk
 ----------------------------
 Optimization for frag0-conf0
 ----------------------------
 Charge =  0 Multiplicity = 1

                         Standard orientation:
 ---------------------------------------------------------------------
 Center     Atomic      Atomic             Coordinates (Angstroms)
 Number     Number       Type             X           Y           Z
 ---------------------------------------------------------------------
      1          6           0       -1.401925    0.208581   -0.210255
      2          6           0        1.381789   -1.688739   -0.038419
      3          6           0        0.751554    2.512318    0.401026
      4          6           0        2.012245    1.902777   -0.223777
      5          6           0        0.116921    1.506525    1.368206
      6          6           0        1.694542    0.576771   -0.917888
      7          6           0       -0.166939    0.132351    0.713495
      8          6           0        0.599171   -2.672242    0.828866
      9          6           0       -3.795264   -0.392963   -0.414528
     10          7           0        1.011982   -0.358946   -0.004383
     11          7           0       -2.519205   -0.408594    0.281617
     12          8           0       -1.385299    0.790814   -1.289723
     13          8           0        2.318446   -2.084837   -0.723382
     14          1           0        0.992770    3.436428    0.940667
     15          1           0        0.035341    2.769251   -0.387376
     16          1           0        2.451248    2.589376   -0.957843
     17          1           0        2.768895    1.735741    0.555741
     18          1           0        0.801496    1.331560    2.209102
     19          1           0       -0.818248    1.896788    1.789354
     20          1           0        1.051458    0.753802   -1.787110
     21          1           0        2.599283    0.070933   -1.253701
     22          1           0       -0.379444   -0.569621    1.522782
     23          1           0       -0.467105   -2.686682    0.575975
     24          1           0        0.692755   -2.443812    1.897377
     25          1           0        1.019213   -3.661703    0.646067
     26          1           0       -3.635360    0.104454   -1.371953
     27          1           0       -4.553549    0.158139    0.154561
     28          1           0       -4.156300   -1.411886   -0.593126
     29          1           0       -2.469641   -0.860077    1.183337
 ---------------------------------------------------------------------

 SCF Done:  E(RB3LYP) =  -612.575843116     A.U. after    1 cycles

 Isotropic polarizability for W=    0.000000      110.41 Bohr**3.
 End of Minotr Frequency-dependent properties file   721 does not exist.

                     1                      2                      3
                     A                      A                      A
 Frequencies --    23.8790                48.0875                72.5353
 Red. masses --     4.2744                 4.6044                 1.0962
 Frc consts  --     0.0014                 0.0063                 0.0034
 IR Inten    --     5.3885                 1.2477                 0.0606

                     4                      5                      6
                     A                      A                      A
 Frequencies --    84.8748               121.3715               133.6089
 Red. masses --     4.2286                 3.3493                 3.0901
 Frc consts  --     0.0179                 0.0291                 0.0325
 IR Inten    --     2.0862                 2.9512                 1.1731

                     7                      8                      9
                     A                      A                      A
 Frequencies --   195.3232               208.1269               214.6938
 Red. masses --     3.4673                 1.5041                 1.6497
 Frc consts  --     0.0779                 0.0384                 0.0448
 IR Inten    --    11.3599                 0.7589                 1.5256

                    10                     11                     12
                     A                      A                      A
 Frequencies --   265.6452               284.7419               319.7961
 Red. masses --     3.3395                 2.9688                 2.7797
 Frc consts  --     0.1388                 0.1418                 0.1675
 IR Inten    --     4.8890                 0.9897                 7.2840

                    13                     14                     15
                     A                      A                      A
 Frequencies --   359.6764               369.9046               387.8167
 Red. masses --     4.1193                 2.9323                 3.2381
 Frc consts  --     0.3140                 0.2364                 0.2869
 IR Inten    --    16.9672                 5.4233                 7.3097

                    16                     17                     18
                     A                      A                      A
 Frequencies --   449.7806               471.0028               503.1460
 Red. masses --     1.8779                 1.7287                 2.7571
 Frc consts  --     0.2238                 0.2259                 0.4112
 IR Inten    --    48.9808                30.1234                 5.1495

                    19                     20                     21
                     A                      A                      A
 Frequencies --   539.8235               599.8353               619.2677
 Red. masses --     2.0317                 2.8782                 3.9033
 Frc consts  --     0.3488                 0.6102                 0.8819
 IR Inten    --     0.3962                 5.3271                10.5107

                    22                     23                     24
                     A                      A                      A
 Frequencies --   717.9954               759.3328               782.9462
 Red. masses --     3.6854                 3.9223                 3.3401
 Frc consts  --     1.1194                 1.3325                 1.2064
 IR Inten    --     4.1066                 2.5060                 2.4714

                    25                     26                     27
                     A                      A                      A
 Frequencies --   838.4626               857.6729               887.7787
 Red. masses --     1.6529                 3.0910                 2.1103
 Frc consts  --     0.6846                 1.3396                 0.9800
 IR Inten    --     2.4204                 0.6931                10.7648

                    28                     29                     30
                     A                      A                      A
 Frequencies --   915.8540               954.3248               968.2967
 Red. masses --     2.6475                 1.6165                 3.0854
 Frc consts  --     1.3084                 0.8674                 1.7044
 IR Inten    --     0.4387                 3.7210                 0.6021

                    31                     32                     33
                     A                      A                      A
 Frequencies --   999.7623              1047.8799              1062.1167
 Red. masses --     2.0390                 2.1946                 1.7318
 Frc consts  --     1.2008                 1.4198                 1.1511
 IR Inten    --    38.0887                 5.3868                 4.5730

                    34                     35                     36
                     A                      A                      A
 Frequencies --  1068.7490              1087.5199              1098.2643
 Red. masses --     2.3603                 2.0746                 1.9174
 Frc consts  --     1.5884                 1.4456                 1.3627
 IR Inten    --    27.3638                 3.5333                 1.3780

                    37                     38                     39
                     A                      A                      A
 Frequencies --  1139.7936              1159.1493              1165.4078
 Red. masses --     1.6934                 1.4633                 1.8526
 Frc consts  --     1.2961                 1.1584                 1.4825
 IR Inten    --     2.4817                 6.6079                 4.7416

                    40                     41                     42
                     A                      A                      A
 Frequencies --  1177.9534              1209.6193              1229.8461
 Red. masses --     1.6823                 1.3209                 1.9593
 Frc consts  --     1.3753                 1.1387                 1.7460
 IR Inten    --    43.8462                32.3274               125.6409

                    43                     44                     45
                     A                      A                      A
 Frequencies --  1279.6234              1303.6061              1307.3240
 Red. masses --     2.1501                 1.7058                 1.3308
 Frc consts  --     2.0743                 1.7079                 1.3401
 IR Inten    --    23.2462                91.8168                26.1416

                    46                     47                     48
                     A                      A                      A
 Frequencies --  1336.1860              1376.6919              1387.5754
 Red. masses --     1.2702                 1.3574                 1.7614
 Frc consts  --     1.3362                 1.5158                 1.9981
 IR Inten    --     3.4066                15.5843                69.2066

                    49                     50                     51
                     A                      A                      A
 Frequencies --  1403.6670              1408.5598              1413.9142
 Red. masses --     1.4350                 1.3207                 1.3668
 Frc consts  --     1.6658                 1.5438                 1.6099
 IR Inten    --     1.2243                 6.1899                 3.9741

                    52                     53                     54
                     A                      A                      A
 Frequencies --  1423.4012              1457.8089              1462.1695
 Red. masses --     1.4316                 1.3756                 1.5681
 Frc consts  --     1.7089                 1.7225                 1.9753
 IR Inten    --    17.3646                81.5055                68.4793

                    55                     56                     57
                     A                      A                      A
 Frequencies --  1507.4404              1507.9517              1514.2401
 Red. masses --     1.0960                 1.0769                 1.1013
 Frc consts  --     1.4674                 1.4428                 1.4878
 IR Inten    --     6.8747                 9.8663                10.1710

                    58                     59                     60
                     A                      A                      A
 Frequencies --  1517.6642              1522.5613              1522.9225
 Red. masses --     1.1868                 1.0904                 1.0522
 Frc consts  --     1.6105                 1.4894                 1.4379
 IR Inten    --    65.1125                 7.3332                 9.4467

                    61                     62                     63
                     A                      A                      A
 Frequencies --  1530.2598              1535.7012              1576.9026
 Red. masses --     1.0462                 1.0939                 1.5603
 Frc consts  --     1.4435                 1.5201                 2.2859
 IR Inten    --     7.2771                13.7023               126.4357

                    64                     65                     66
                     A                      A                      A
 Frequencies --  1762.1023              1777.2500              3034.0936
 Red. masses --     9.8933                 8.4816                 1.0648
 Frc consts  --    18.0989                15.7842                 5.7755
 IR Inten    --   277.4377               216.6867                29.5776

                    67                     68                     69
                     A                      A                      A
 Frequencies --  3037.2090              3049.8991              3051.9608
 Red. masses --     1.0621                 1.0374                 1.0404
 Frc consts  --     5.7724                 5.6854                 5.7097
 IR Inten    --    22.6751                62.7434                 7.5416

                    70                     71                     72
                     A                      A                      A
 Frequencies --  3055.3778              3073.5504              3078.6830
 Red. masses --     1.0643                 1.0767                 1.1021
 Frc consts  --     5.8538                 5.9928                 6.1544
 IR Inten    --    35.6095                 7.7893                33.4571

                    73                     74                     75
                     A                      A                      A
 Frequencies --  3087.8439              3104.5359              3105.1908
 Red. masses --     1.0902                 1.1044                 1.0877
 Frc consts  --     6.1246                 6.2716                 6.1794
 IR Inten    --    43.9504                30.5515                14.9293

                    76                     77                     78
                     A                      A                      A
 Frequencies --  3107.5898              3113.1954              3166.9816
 Red. masses --     1.0987                 1.1006                 1.0963
 Frc consts  --     6.2514                 6.2846                 6.4785
 IR Inten    --    46.3989                13.2058                 4.4502

                    79                     80                     81
                     A                      A                      A
 Frequencies --  3175.9734              3178.2129              3629.6071
 Red. masses --     1.0989                 1.0985                 1.0773
 Frc consts  --     6.5309                 6.5374                 8.3622
 IR Inten    --     7.9483                 0.6604                17.9457

 - Thermochemistry -
 -------------------
 Temperature   298.150 Kelvin.  Pressure   1.00000 Atm.
 Atom     1 has atomic number  6 and mass  12.00000

 Molecular mass:   184.12118 amu.
 Principal axes and moments of inertia in atomic units:
                           1         2         3
     Eigenvalues --  1906.581132616.420553711.68745
           X            0.99593   0.09017  -0.00022
           Y           -0.09016   0.99584  -0.01315
           Z           -0.00096   0.01312   0.99991
 This molecule is an asymmetric top.
 Rotational symmetry number  1.
 Warning -- assumption of classical behavior for rotation
           may cause significant error
 Rotational temperatures (Kelvin)      0.04543     0.03310     0.02334
 Rotational constants (GHZ):           0.94659     0.68977     0.48623
 Zero-point vibrational energy     665644.6 (Joules/Mol)
                                  159.09288 (Kcal/Mol)
 Warning -- explicit consideration of  21 degrees of freedom as
           vibrations may cause significant error
 Vibrational temperatures:     34.36    69.19   104.36   122.12   174.63
          (Kelvin)            192.23   281.03   299.45   308.90   382.20
                              409.68   460.11   517.49   532.21   557.98
                              647.13   677.67   723.91   776.68   863.03
                              890.99  1033.03  1092.51  1126.48  1206.36
                             1234.00  1277.31  1317.71  1373.06  1393.16
                             1438.43  1507.66  1528.15  1537.69  1564.70
                             1580.16  1639.91  1667.76  1676.76  1694.81
                             1740.37  1769.47  1841.09  1875.60  1880.95
                             1922.47  1980.75  1996.41  2019.56  2026.60
                             2034.30  2047.95  2097.46  2103.73  2168.87
                             2169.60  2178.65  2183.58  2190.62  2191.14
                             2201.70  2209.53  2268.81  2535.27  2557.06
                             4365.38  4369.86  4388.12  4391.09  4396.00
                             4422.15  4429.53  4442.71  4466.73  4467.67
                             4471.12  4479.19  4556.57  4569.51  4572.73
                             5222.19

 Zero-point correction=                           0.253531 (Hartree/Particle)
 Thermal correction to Energy=                    0.267249
 Thermal correction to Enthalpy=                  0.268194
 Thermal correction to Gibbs Free Energy=         0.212131
 Sum of electronic and zero-point Energies=           -612.322312
 Sum of electronic and thermal Energies=              -612.308594
 Sum of electronic and thermal Enthalpies=            -612.307649
 Sum of electronic and thermal Free Energies=         -612.363712

                     E (Thermal)             CV                S
                      KCal/Mol        Cal/Mol-Kelvin    Cal/Mol-Kelvin
 Total                  167.702             50.415            117.994
 Electronic               0.000              0.000              0.000
 Translational            0.889              2.981             41.538
 Rotational               0.889              2.981             31.294
 Vibrational            165.924             44.453             45.162
 Vibration     1          0.593              1.985              6.282
 Vibration     2          0.595              1.978              4.895
 Vibration     3          0.599              1.967              4.083
 Vibration     4          0.601              1.960              3.775
 Vibration     5          0.609              1.931              3.078
 Vibration     6          0.613              1.920              2.893
 Vibration     7          0.636              1.846              2.177
 Vibration     8          0.641              1.828              2.060
 Vibration     9          0.645              1.819              2.003
 Vibration    10          0.671              1.736              1.624
 Vibration    11          0.683              1.702              1.505
 Vibration    12          0.706              1.636              1.311
 Vibration    13          0.734              1.555              1.124
 Vibration    14          0.742              1.534              1.080
 Vibration    15          0.756              1.496              1.009
 Vibration    16          0.809              1.361              0.796
 Vibration    17          0.828              1.314              0.735
 Vibration    18          0.858              1.243              0.650
 Vibration    19          0.895              1.162              0.566
 Vibration    20          0.958              1.032              0.450
 Vibration    21          0.979              0.991              0.418

 Optimization completed.
    -- Stationary point found.
 Normal termination of Gaussian 09 at Sat Feb 17 21:20:50 2018.
