 Gaussian 09, Revision C.01,
 Gaussian 09:  AM64L-G09RevC.01 23-Sep-2011

 ----------------------------------------------------------------------
 #HF/6-31G* Geom=AllCheck Guess=Read Pop=(MK,ReadRadii) Integral=(Grid=
 UltraFine) iop(6/33=2)
 ----------------------------------------------------------------------

 Structure from the checkpoint file:  frag6-conf2.chk
 ----------------------------
 Optimization for frag6-conf2
 ----------------------------
 Charge =  1 Multiplicity = 1

                         Standard orientation:
 ---------------------------------------------------------------------
 Center     Atomic      Atomic             Coordinates (Angstroms)
 Number     Number       Type             X           Y           Z
 ---------------------------------------------------------------------
      1          6           0        1.800245   -1.325451   -0.331712
      2          6           0        1.142272    0.877918    0.463646
      3          6           0        0.483562   -1.753274   -0.198284
      4          6           0       -0.165913    0.436738    0.600035
      5          6           0        2.141007   -0.001213   -0.002397
      6          6           0       -0.513330   -0.885416    0.267902
      7          6           0        3.522672    0.460270   -0.136667
      8          6           0       -3.544769    0.466943   -0.023656
      9          6           0       -4.661306    0.955243   -0.925802
     10          6           0       -1.948869   -1.357244    0.439591
     11          7           0        4.532728   -0.378806    0.084052
     12          7           0       -2.901659   -0.676845   -0.428490
     13          7           0        3.774397    1.721310   -0.480179
     14          8           0       -3.232780    1.041297    1.014453
     15          1           0        2.544912   -2.004417   -0.738037
     16          1           0        1.398031    1.887083    0.775267
     17          1           0        0.228217   -2.774412   -0.467517
     18          1           0       -0.937947    1.098879    0.980372
     19          1           0       -5.620176    0.771642   -0.428983
     20          1           0       -4.563772    2.035677   -1.057377
     21          1           0       -4.677568    0.470160   -1.906340
     22          1           0       -2.013673   -2.432704    0.251523
     23          1           0       -2.259050   -1.172442    1.473771
     24          1           0        4.355051   -1.280582    0.505418
     25          1           0        5.499871   -0.130021   -0.085547
     26          1           0       -3.192961   -1.136395   -1.279308
     27          1           0        3.021301    2.316984   -0.797312
     28          1           0        4.708306    2.113490   -0.485163
 ---------------------------------------------------------------------

 SCF Done:  E(RHF) =  -624.884002789     A.U. after   14 cycles

 The electronic state is 1-A.
 Alpha  occ. eigenvalues --  -20.61617 -15.79213 -15.79199 -15.68951 -11.56062
 Alpha  occ. eigenvalues --  -11.44799 -11.40691 -11.39911 -11.39429 -11.38721
 Alpha  occ. eigenvalues --  -11.38310 -11.37416 -11.36383 -11.32017  -1.49664
 Alpha  occ. eigenvalues --   -1.46875  -1.37973  -1.32918  -1.29815  -1.19697
 Alpha  occ. eigenvalues --   -1.15971  -1.11072  -1.07259  -1.02513  -0.97988
 Alpha  occ. eigenvalues --   -0.96588  -0.92431  -0.91818  -0.88373  -0.85140
 Alpha  occ. eigenvalues --   -0.82817  -0.79948  -0.78622  -0.76689  -0.75106
 Alpha  occ. eigenvalues --   -0.74198  -0.73364  -0.72643  -0.69045  -0.67078
 Alpha  occ. eigenvalues --   -0.66645  -0.65251  -0.64010  -0.63268  -0.62170
 Alpha  occ. eigenvalues --   -0.60473  -0.59212  -0.51310  -0.49157  -0.47849
 Alpha  occ. eigenvalues --   -0.47249
 Alpha virt. eigenvalues --   -0.06971  -0.00468   0.04446   0.04807   0.08944
 Alpha virt. eigenvalues --    0.09624   0.09993   0.12031   0.12758   0.13449
 Alpha virt. eigenvalues --    0.16480   0.18689   0.19080   0.20199   0.22384

 Mulliken atomic charges:
              1
     1  C   -0.187039
     2  C   -0.192572
     3  C   -0.231800
     4  C   -0.225967
     5  C   -0.088163
     6  C    0.060419
     7  C    0.749410
     8  C    0.760137
     9  C   -0.579504
    10  C   -0.169500
    11  N   -0.893613
    12  N   -0.797328
    13  N   -0.892515
    14  O   -0.628951
    15  H    0.244005
    16  H    0.246403
    17  H    0.243272
    18  H    0.314497
    19  H    0.227213
    20  H    0.221937
    21  H    0.179086
    22  H    0.208048
    23  H    0.249919
    24  H    0.451560
    25  H    0.438929
    26  H    0.400096
    27  H    0.452867
    28  H    0.439154
 Sum of Mulliken atomic charges =   1.00000

 Dipole moment (field-independent basis, Debye):
    X=             12.4179    Y=             -0.6029    Z=             -3.4182  Tot=             12.8938
 Quadrupole moment (field-independent basis, Debye-Ang):
   XX=              5.3277   YY=            -62.3123   ZZ=            -83.1207
   XY=             14.6608   XZ=              7.8081   YZ=             -3.9102

 Normal termination of Gaussian 09 at Sat Feb 17 20:57:01 2018.
