 Gaussian 09, Revision C.01,
 Gaussian 09:  AM64L-G09RevC.01 23-Sep-2011

 ---------------------------------------------------------
 #B3LYP/6-31G* Integral=(Grid=UltraFine) freq Opt pop=none
 ---------------------------------------------------------

 99/9=1/99;
 ----------------------------
 Optimization for frag6-conf2
 ----------------------------
 Charge =  1 Multiplicity = 1

 SCF Done:  E(RB3LYP) =  -628.776233014     A.U. after   17 cycles
 SCF Done:  E(RB3LYP) =  -628.779785430     A.U. after   13 cycles
 SCF Done:  E(RB3LYP) =  -628.780309573     A.U. after   12 cycles
 SCF Done:  E(RB3LYP) =  -628.780462903     A.U. after   12 cycles
 SCF Done:  E(RB3LYP) =  -628.780527874     A.U. after   11 cycles
 SCF Done:  E(RB3LYP) =  -628.780592633     A.U. after   11 cycles
 SCF Done:  E(RB3LYP) =  -628.780954989     A.U. after   13 cycles
 SCF Done:  E(RB3LYP) =  -628.781488073     A.U. after   13 cycles
 SCF Done:  E(RB3LYP) =  -628.782167505     A.U. after   13 cycles
 SCF Done:  E(RB3LYP) =  -628.783329551     A.U. after   12 cycles
 SCF Done:  E(RB3LYP) =  -628.789557214     A.U. after    9 cycles
 SCF Done:  E(RB3LYP) =  -628.789557398     A.U. after    7 cycles
 SCF Done:  E(RB3LYP) =  -628.789557637     A.U. after    8 cycles
 SCF Done:  E(RB3LYP) =  -628.789557810     A.U. after    7 cycles
 SCF Done:  E(RB3LYP) =  -628.789557992     A.U. after    8 cycles
 SCF Done:  E(RB3LYP) =  -628.789558099     A.U. after    7 cycles
 SCF Done:  E(RB3LYP) =  -628.789558157     A.U. after    7 cycles
 SCF Done:  E(RB3LYP) =  -628.789558196     A.U. after    7 cycles
 SCF Done:  E(RB3LYP) =  -628.789558209     A.U. after    7 cycles
 Optimization completed.
    -- Stationary point found.
 Normal termination of Gaussian 09 at Fri Feb 16 18:19:59 2018.

 --------------------------------------------------------------------
 #N Geom=AllCheck Guess=TCheck SCRF=Check GenChk RB3LYP/6-31G(d) Freq
 --------------------------------------------------------------------

 Structure from the checkpoint file:  frag6-conf2.chk
 ----------------------------
 Optimization for frag6-conf2
 ----------------------------
 Charge =  1 Multiplicity = 1

                         Standard orientation:
 ---------------------------------------------------------------------
 Center     Atomic      Atomic             Coordinates (Angstroms)
 Number     Number       Type             X           Y           Z
 ---------------------------------------------------------------------
      1          6           0        1.800245   -1.325451   -0.331712
      2          6           0        1.142272    0.877918    0.463646
      3          6           0        0.483562   -1.753274   -0.198284
      4          6           0       -0.165913    0.436738    0.600035
      5          6           0        2.141007   -0.001213   -0.002397
      6          6           0       -0.513330   -0.885416    0.267902
      7          6           0        3.522672    0.460270   -0.136667
      8          6           0       -3.544769    0.466943   -0.023656
      9          6           0       -4.661306    0.955243   -0.925802
     10          6           0       -1.948869   -1.357244    0.439591
     11          7           0        4.532728   -0.378806    0.084052
     12          7           0       -2.901659   -0.676845   -0.428490
     13          7           0        3.774397    1.721310   -0.480179
     14          8           0       -3.232780    1.041297    1.014453
     15          1           0        2.544912   -2.004417   -0.738037
     16          1           0        1.398031    1.887083    0.775267
     17          1           0        0.228217   -2.774412   -0.467517
     18          1           0       -0.937947    1.098879    0.980372
     19          1           0       -5.620176    0.771642   -0.428983
     20          1           0       -4.563772    2.035677   -1.057377
     21          1           0       -4.677568    0.470160   -1.906340
     22          1           0       -2.013673   -2.432704    0.251523
     23          1           0       -2.259050   -1.172442    1.473771
     24          1           0        4.355051   -1.280582    0.505418
     25          1           0        5.499871   -0.130021   -0.085547
     26          1           0       -3.192961   -1.136395   -1.279308
     27          1           0        3.021301    2.316984   -0.797312
     28          1           0        4.708306    2.113490   -0.485163
 ---------------------------------------------------------------------

 SCF Done:  E(RB3LYP) =  -628.789558209     A.U. after    1 cycles

 Isotropic polarizability for W=    0.000000      128.29 Bohr**3.
 End of Minotr Frequency-dependent properties file   721 does not exist.

                     1                      2                      3
                     A                      A                      A
 Frequencies --    24.3890                52.7468                58.5036
 Red. masses --     4.0023                 2.3707                 1.3081
 Frc consts  --     0.0014                 0.0039                 0.0026
 IR Inten    --     0.2797                 7.5845                 2.2199

                     4                      5                      6
                     A                      A                      A
 Frequencies --    83.1064                96.4151               103.1735
 Red. masses --     5.7812                 3.9183                 3.7952
 Frc consts  --     0.0235                 0.0215                 0.0238
 IR Inten    --    12.6837                 7.1682                 1.0209

                     7                      8                      9
                     A                      A                      A
 Frequencies --   169.6972               201.3913               250.3990
 Red. masses --     5.0372                 5.3464                 4.0278
 Frc consts  --     0.0855                 0.1278                 0.1488
 IR Inten    --     3.5364                 8.6852                 6.5605

                    10                     11                     12
                     A                      A                      A
 Frequencies --   279.3668               341.1007               376.1627
 Red. masses --     4.5470                 2.1812                 3.8914
 Frc consts  --     0.2091                 0.1495                 0.3244
 IR Inten    --     5.8393                 5.0480                 2.5254

                    13                     14                     15
                     A                      A                      A
 Frequencies --   407.9214               416.5661               429.9511
 Red. masses --     1.1952                 3.0102                 2.9564
 Frc consts  --     0.1172                 0.3078                 0.3220
 IR Inten    --    80.5790                 0.0666                 6.3968

                    16                     17                     18
                     A                      A                      A
 Frequencies --   453.8489               485.4030               503.2181
 Red. masses --     1.2233                 1.2835                 2.1444
 Frc consts  --     0.1485                 0.1782                 0.3199
 IR Inten    --    18.0292                 2.4863                82.1121

                    19                     20                     21
                     A                      A                      A
 Frequencies --   508.3433               535.5396               575.2386
 Red. masses --     1.3384                 2.6271                 2.8815
 Frc consts  --     0.2038                 0.4439                 0.5618
 IR Inten    --   364.0968                26.4514                 7.4053

                    22                     23                     24
                     A                      A                      A
 Frequencies --   631.6341               635.8198               642.8142
 Red. masses --     2.4449                 2.4318                 4.1118
 Frc consts  --     0.5747                 0.5792                 1.0011
 IR Inten    --     0.3499                 3.1443                 3.4708

                    25                     26                     27
                     A                      A                      A
 Frequencies --   658.5291               704.2441               725.6430
 Red. masses --     1.6390                 3.3223                 3.5946
 Frc consts  --     0.4188                 0.9708                 1.1152
 IR Inten    --     8.2267                 7.2089                20.4315

                    28                     29                     30
                     A                      A                      A
 Frequencies --   771.2229               830.5444               850.6718
 Red. masses --     4.5362                 3.4965                 2.2413
 Frc consts  --     1.5897                 1.4211                 0.9556
 IR Inten    --     2.4167                14.0438                 3.5989

                    31                     32                     33
                     A                      A                      A
 Frequencies --   860.7995               888.6115               980.7283
 Red. masses --     1.4804                 1.7354                 1.3342
 Frc consts  --     0.6463                 0.8074                 0.7561
 IR Inten    --     9.0342                23.4934                 0.2332

                    34                     35                     36
                     A                      A                      A
 Frequencies --  1001.4942              1025.0051              1034.1450
 Red. masses --     1.6057                 1.4609                 2.9495
 Frc consts  --     0.9489                 0.9043                 1.8585
 IR Inten    --     4.7519                 6.9722                 2.9607

                    37                     38                     39
                     A                      A                      A
 Frequencies --  1044.0516              1069.5901              1071.1387
 Red. masses --     2.2420                 1.6971                 1.3216
 Frc consts  --     1.4399                 1.1439                 0.8934
 IR Inten    --     8.1108                 8.7825                 1.8937

                    40                     41                     42
                     A                      A                      A
 Frequencies --  1106.3847              1109.0476              1164.9581
 Red. masses --     2.2277                 2.8861                 1.3689
 Frc consts  --     1.6067                 2.0915                 1.0945
 IR Inten    --     1.0064                 8.5382                 7.7607

                    43                     44                     45
                     A                      A                      A
 Frequencies --  1179.7758              1224.9145              1234.9960
 Red. masses --     2.9047                 1.7533                 1.5966
 Frc consts  --     2.3821                 1.5500                 1.4348
 IR Inten    --    23.4001                 2.0539                 2.1486

                    46                     47                     48
                     A                      A                      A
 Frequencies --  1272.5176              1302.3448              1354.0628
 Red. masses --     1.6883                 1.6618                 1.7589
 Frc consts  --     1.6107                 1.6607                 1.9000
 IR Inten    --    77.4506               104.0578                 2.0162

                    49                     50                     51
                     A                      A                      A
 Frequencies --  1378.9812              1409.2132              1429.2699
 Red. masses --     2.0696                 1.3721                 1.2459
 Frc consts  --     2.3188                 1.6054                 1.4996
 IR Inten    --     3.5512                25.7929                19.5713

                    52                     53                     54
                     A                      A                      A
 Frequencies --  1462.5282              1490.1431              1496.6072
 Red. masses --     2.6033                 1.1053                 1.0521
 Frc consts  --     3.2808                 1.4461                 1.3884
 IR Inten    --    17.5218                10.1167                16.8355

                    55                     56                     57
                     A                      A                      A
 Frequencies --  1513.9094              1515.1131              1545.4605
 Red. masses --     1.6973                 1.3584                 1.9002
 Frc consts  --     2.2919                 1.8373                 2.6740
 IR Inten    --   165.8853               143.5604               219.1684

                    58                     59                     60
                     A                      A                      A
 Frequencies --  1563.7061              1575.0629              1615.8110
 Red. masses --     2.6977                 2.0307                 3.4340
 Frc consts  --     3.8864                 2.9681                 5.2824
 IR Inten    --    74.1923                 7.6429                 5.2444

                    61                     62                     63
                     A                      A                      A
 Frequencies --  1656.7804              1704.2949              1720.7777
 Red. masses --     5.1905                 1.2480                 2.3287
 Frc consts  --     8.3944                 2.1358                 4.0627
 IR Inten    --   138.7374               187.9649               383.8423

                    64                     65                     66
                     A                      A                      A
 Frequencies --  1772.4315              3068.9405              3075.1246
 Red. masses --     8.8613                 1.0364                 1.0593
 Frc consts  --    16.4017                 5.7514                 5.9022
 IR Inten    --   170.9654                 3.9683                14.4536

                    67                     68                     69
                     A                      A                      A
 Frequencies --  3127.5171              3138.1857              3158.6070
 Red. masses --     1.1062                 1.1021                 1.1027
 Frc consts  --     6.3748                 6.3948                 6.4816
 IR Inten    --     9.2185                 8.4758                 6.2887

                    70                     71                     72
                     A                      A                      A
 Frequencies --  3195.1183              3198.1022              3210.1262
 Red. masses --     1.0883                 1.0899                 1.0948
 Frc consts  --     6.5457                 6.5677                 6.6468
 IR Inten    --     2.3077                 3.3760                 3.3459

                    73                     74                     75
                     A                      A                      A
 Frequencies --  3221.6774              3572.9177              3583.4439
 Red. masses --     1.0950                 1.0469                 1.0494
 Frc consts  --     6.6962                 7.8741                 7.9394
 IR Inten    --    21.5192               165.6174               154.3452

                    76                     77                     78
                     A                      A                      A
 Frequencies --  3631.5878              3689.6141              3690.7009
 Red. masses --     1.0786                 1.1045                 1.1054
 Frc consts  --     8.3812                 8.8590                 8.8711
 IR Inten    --    28.6385                74.9471                87.6909

 - Thermochemistry -
 -------------------
 Temperature   298.150 Kelvin.  Pressure   1.00000 Atm.
 Atom     1 has atomic number  6 and mass  12.00000

 Molecular mass:   192.11369 amu.
 Principal axes and moments of inertia in atomic units:
                           1         2         3
     Eigenvalues --  1011.338856199.659696804.32107
           X            0.99997   0.00137   0.00710
           Y           -0.00127   0.99990  -0.01426
           Z           -0.00711   0.01425   0.99987
 This molecule is an asymmetric top.
 Rotational symmetry number  1.
 Warning -- assumption of classical behavior for rotation
           may cause significant error
 Rotational temperatures (Kelvin)      0.08564     0.01397     0.01273
 Rotational constants (GHZ):           1.78451     0.29110     0.26523
 Zero-point vibrational energy     622895.1 (Joules/Mol)
                                  148.87550 (Kcal/Mol)
 Warning -- explicit consideration of  21 degrees of freedom as
           vibrations may cause significant error
 Vibrational temperatures:     35.09    75.89    84.17   119.57   138.72
          (Kelvin)            148.44   244.16   289.76   360.27   401.95
                              490.77   541.21   586.91   599.35   618.60
                              652.99   698.39   724.02   731.39   770.52
                              827.64   908.78   914.80   924.87   947.48
                             1013.25  1044.04  1109.62  1194.97  1223.93
                             1238.50  1278.51  1411.05  1440.92  1474.75
                             1487.90  1502.16  1538.90  1541.13  1591.84
                             1595.67  1676.11  1697.43  1762.38  1776.88
                             1830.87  1873.78  1948.19  1984.04  2027.54
                             2056.40  2104.25  2143.98  2153.28  2178.18
                             2179.91  2223.57  2249.82  2266.16  2324.79
                             2383.73  2452.10  2475.81  2550.13  4415.52
                             4424.41  4499.79  4515.14  4544.53  4597.06
                             4601.35  4618.65  4635.27  5140.63  5155.77
                             5225.04  5308.53  5310.09

 Zero-point correction=                           0.237248 (Hartree/Particle)
 Thermal correction to Energy=                    0.251400
 Thermal correction to Enthalpy=                  0.252344
 Thermal correction to Gibbs Free Energy=         0.194987
 Sum of electronic and zero-point Energies=           -628.552310
 Sum of electronic and thermal Energies=              -628.538159
 Sum of electronic and thermal Enthalpies=            -628.537214
 Sum of electronic and thermal Free Energies=         -628.594571

                     E (Thermal)             CV                S
                      KCal/Mol        Cal/Mol-Kelvin    Cal/Mol-Kelvin
 Total                  157.756             53.316            120.717
 Electronic               0.000              0.000              0.000
 Translational            0.889              2.981             41.664
 Rotational               0.889              2.981             32.123
 Vibrational            155.978             47.354             46.930
 Vibration     1          0.593              1.985              6.240
 Vibration     2          0.596              1.977              4.712
 Vibration     3          0.596              1.974              4.507
 Vibration     4          0.600              1.961              3.816
 Vibration     5          0.603              1.952              3.526
 Vibration     6          0.605              1.947              3.393
 Vibration     7          0.625              1.880              2.439
 Vibration     8          0.638              1.838              2.120
 Vibration     9          0.663              1.762              1.728
 Vibration    10          0.680              1.712              1.538
 Vibration    11          0.721              1.593              1.207
 Vibration    12          0.747              1.521              1.055
 Vibration    13          0.772              1.453              0.934
 Vibration    14          0.780              1.434              0.904
 Vibration    15          0.791              1.405              0.859
 Vibration    16          0.812              1.352              0.784
 Vibration    17          0.841              1.282              0.696
 Vibration    18          0.859              1.243              0.650
 Vibration    19          0.864              1.232              0.638
 Vibration    20          0.891              1.171              0.575
 Vibration    21          0.932              1.085              0.494

 Optimization completed.
    -- Stationary point found.
 Normal termination of Gaussian 09 at Fri Feb 16 18:44:37 2018.
