 Gaussian 09, Revision C.01,
 Gaussian 09:  AM64L-G09RevC.01 23-Sep-2011

 ----------------------------------------------------------------------
 #HF/6-31G* Geom=AllCheck Guess=Read Pop=(MK,ReadRadii) Integral=(Grid=
 UltraFine) iop(6/33=2)
 ----------------------------------------------------------------------

 Structure from the checkpoint file:  frag30-conf2.chk
 -----------------------------
 Optimization for frag30-conf2
 -----------------------------
 Charge =  0 Multiplicity = 1

                         Standard orientation:
 ---------------------------------------------------------------------
 Center     Atomic      Atomic             Coordinates (Angstroms)
 Number     Number       Type             X           Y           Z
 ---------------------------------------------------------------------
      1          6           0        3.290896   -0.755834    0.000012
      2          6           0        3.468998    0.629806   -0.000010
      3          6           0        1.998155   -1.267657    0.000021
      4          6           0        2.334546    1.435613   -0.000015
      5          6           0        0.916096   -0.376860    0.000012
      6          6           0       -2.800289   -0.055207    0.000004
      7          6           0       -3.686661    1.182494    0.000015
      8          6           0       -0.506922   -0.903566   -0.000011
      9          7           0        1.084287    0.951450   -0.000015
     10          7           0       -1.460513    0.181162    0.000046
     11          8           0       -3.263863   -1.191860   -0.000040
     12          1           0        4.147318   -1.424668    0.000015
     13          1           0        4.459738    1.073478   -0.000029
     14          1           0        1.820572   -2.339793    0.000032
     15          1           0        2.424207    2.520365   -0.000040
     16          1           0       -4.334786    1.153252   -0.881451
     17          1           0       -4.334900    1.153157    0.881393
     18          1           0       -3.127936    2.123682    0.000102
     19          1           0       -0.666404   -1.549631   -0.875242
     20          1           0       -0.666404   -1.549718    0.875154
     21          1           0       -1.065825    1.113738    0.000007
 ---------------------------------------------------------------------

 SCF Done:  E(RHF) =  -492.549043023     A.U. after   14 cycles

 The electronic state is 1-A.
 Alpha  occ. eigenvalues --  -20.50814 -15.57995 -15.57520 -11.34191 -11.29668
 Alpha  occ. eigenvalues --  -11.28772 -11.27125 -11.27022 -11.25100 -11.25036
 Alpha  occ. eigenvalues --  -11.22991  -1.36044  -1.27414  -1.21469  -1.09475
 Alpha  occ. eigenvalues --   -1.06132  -0.99994  -0.93687  -0.86978  -0.83339
 Alpha  occ. eigenvalues --   -0.78079  -0.71794  -0.67757  -0.66806  -0.64438
 Alpha  occ. eigenvalues --   -0.63580  -0.62849  -0.58885  -0.58582  -0.57555
 Alpha  occ. eigenvalues --   -0.55727  -0.54441  -0.53826  -0.51782  -0.48921
 Alpha  occ. eigenvalues --   -0.42853  -0.40542  -0.39145  -0.37917  -0.34313
 Alpha virt. eigenvalues --    0.11154   0.12500   0.20828   0.23112   0.24280
 Alpha virt. eigenvalues --    0.26324   0.28772   0.29105   0.30194   0.31052
 Alpha virt. eigenvalues --    0.31163   0.34091   0.34274   0.37762   0.38201

 Mulliken atomic charges:
              1
     1  C   -0.137364
     2  C   -0.270289
     3  C   -0.263353
     4  C    0.085697
     5  C    0.295981
     6  C    0.768084
     7  C   -0.573459
     8  C   -0.084325
     9  N   -0.617818
    10  N   -0.840741
    11  O   -0.636685
    12  H    0.222018
    13  H    0.215987
    14  H    0.219301
    15  H    0.208808
    16  H    0.203391
    17  H    0.203393
    18  H    0.170034
    19  H    0.201455
    20  H    0.201456
    21  H    0.428429
 Sum of Mulliken atomic charges =   0.00000

 Dipole moment (field-independent basis, Debye):
    X=              4.4261    Y=              2.0177    Z=              0.0000  Tot=              4.8643
 Quadrupole moment (field-independent basis, Debye-Ang):
   XX=            -62.8117   YY=            -62.0110   ZZ=            -67.0439
   XY=            -11.7736   XZ=             -0.0002   YZ=             -0.0003

 Normal termination of Gaussian 09 at Sat Feb 17 21:02:02 2018.
