 Gaussian 09, Revision C.01,
 Gaussian 09:  AM64L-G09RevC.01 23-Sep-2011

 ---------------------------------------------------------
 #B3LYP/6-31G* Integral=(Grid=UltraFine) freq Opt pop=none
 ---------------------------------------------------------

 99/9=1/99;
 -----------------------------
 Optimization for frag30-conf2
 -----------------------------
 Charge =  0 Multiplicity = 1

 SCF Done:  E(RB3LYP) =  -495.606838197     A.U. after   15 cycles
 SCF Done:  E(RB3LYP) =  -495.609119832     A.U. after   13 cycles
 SCF Done:  E(RB3LYP) =  -495.609500858     A.U. after   12 cycles
 SCF Done:  E(RB3LYP) =  -495.610028029     A.U. after   14 cycles
 SCF Done:  E(RB3LYP) =  -495.610712959     A.U. after   13 cycles
 SCF Done:  E(RB3LYP) =  -495.611582223     A.U. after   15 cycles
 SCF Done:  E(RB3LYP) =  -495.612019507     A.U. after   15 cycles
 SCF Done:  E(RB3LYP) =  -495.615428181     A.U. after   15 cycles
 SCF Done:  E(RB3LYP) =  -495.616534424     A.U. after   15 cycles
 SCF Done:  E(RB3LYP) =  -495.617523333     A.U. after   12 cycles
 SCF Done:  E(RB3LYP) =  -495.617783091     A.U. after   12 cycles
 SCF Done:  E(RB3LYP) =  -495.617820610     A.U. after   13 cycles
 SCF Done:  E(RB3LYP) =  -495.617824178     A.U. after    9 cycles
 SCF Done:  E(RB3LYP) =  -495.617824704     A.U. after    8 cycles
 SCF Done:  E(RB3LYP) =  -495.617824739     A.U. after    7 cycles
 SCF Done:  E(RB3LYP) =  -495.617824801     A.U. after    7 cycles
 SCF Done:  E(RB3LYP) =  -495.617824900     A.U. after    7 cycles
 SCF Done:  E(RB3LYP) =  -495.617825016     A.U. after    7 cycles
 SCF Done:  E(RB3LYP) =  -495.617825039     A.U. after    7 cycles
 Optimization completed.
    -- Stationary point found.
 Normal termination of Gaussian 09 at Fri Feb 16 20:35:09 2018.

 --------------------------------------------------------------------
 #N Geom=AllCheck Guess=TCheck SCRF=Check GenChk RB3LYP/6-31G(d) Freq
 --------------------------------------------------------------------

 Structure from the checkpoint file:  frag30-conf2.chk
 -----------------------------
 Optimization for frag30-conf2
 -----------------------------
 Charge =  0 Multiplicity = 1

                         Standard orientation:
 ---------------------------------------------------------------------
 Center     Atomic      Atomic             Coordinates (Angstroms)
 Number     Number       Type             X           Y           Z
 ---------------------------------------------------------------------
      1          6           0        3.290896   -0.755834    0.000012
      2          6           0        3.468998    0.629806   -0.000010
      3          6           0        1.998155   -1.267657    0.000021
      4          6           0        2.334546    1.435613   -0.000015
      5          6           0        0.916096   -0.376860    0.000012
      6          6           0       -2.800289   -0.055207    0.000004
      7          6           0       -3.686661    1.182494    0.000015
      8          6           0       -0.506922   -0.903566   -0.000011
      9          7           0        1.084287    0.951450   -0.000015
     10          7           0       -1.460513    0.181162    0.000046
     11          8           0       -3.263863   -1.191860   -0.000040
     12          1           0        4.147318   -1.424668    0.000015
     13          1           0        4.459738    1.073478   -0.000029
     14          1           0        1.820572   -2.339793    0.000032
     15          1           0        2.424207    2.520365   -0.000040
     16          1           0       -4.334786    1.153252   -0.881451
     17          1           0       -4.334900    1.153157    0.881393
     18          1           0       -3.127936    2.123682    0.000102
     19          1           0       -0.666404   -1.549631   -0.875242
     20          1           0       -0.666404   -1.549718    0.875154
     21          1           0       -1.065825    1.113738    0.000007
 ---------------------------------------------------------------------

 SCF Done:  E(RB3LYP) =  -495.617825039     A.U. after    1 cycles

 Isotropic polarizability for W=    0.000000       94.83 Bohr**3.
 End of Minotr Frequency-dependent properties file   721 does not exist.

                     1                      2                      3
                     A                      A                      A
 Frequencies --    24.3580                46.2928                58.7327
 Red. masses --     4.0593                 4.1633                 1.1292
 Frc consts  --     0.0014                 0.0053                 0.0023
 IR Inten    --     0.0266                 3.2733                 2.2272

                     4                      5                      6
                     A                      A                      A
 Frequencies --   106.1034               159.8841               199.4232
 Red. masses --     4.1668                 3.7430                 2.4463
 Frc consts  --     0.0276                 0.0564                 0.0573
 IR Inten    --     8.9665                 3.3317                 8.6045

                     7                      8                      9
                     A                      A                      A
 Frequencies --   242.9709               309.8695               415.4577
 Red. masses --     8.4012                 3.9330                 3.3766
 Frc consts  --     0.2922                 0.2225                 0.3434
 IR Inten    --     2.3545                 0.0214                 1.2306

                    10                     11                     12
                     A                      A                      A
 Frequencies --   468.9977               479.8753               516.0437
 Red. masses --     2.3506                 3.3260                 1.4594
 Frc consts  --     0.3046                 0.4513                 0.2290
 IR Inten    --    16.9299                18.1918                54.6086

                    13                     14                     15
                     A                      A                      A
 Frequencies --   593.9867               628.2115               650.6123
 Red. masses --     5.5509                 6.0180                 1.8291
 Frc consts  --     1.1539                 1.3993                 0.4562
 IR Inten    --     4.1807                 0.2359                 5.2911

                    16                     17                     18
                     A                      A                      A
 Frequencies --   658.1605               742.0960               771.9809
 Red. masses --     5.0255                 3.5999                 1.2198
 Frc consts  --     1.2826                 1.1681                 0.4283
 IR Inten    --     2.5518                11.0395                30.6740

                    19                     20                     21
                     A                      A                      A
 Frequencies --   832.7054               903.7014               972.2757
 Red. masses --     4.5637                 1.2770                 1.3889
 Frc consts  --     1.8644                 0.6145                 0.7736
 IR Inten    --     1.7644                 0.0536                 0.0512

                    22                     23                     24
                     A                      A                      A
 Frequencies --   988.6266              1006.6474              1008.2877
 Red. masses --     4.0009                 1.3056                 1.8194
 Frc consts  --     2.3039                 0.7795                 1.0898
 IR Inten    --    13.6559                 0.0483                10.7213

                    25                     26                     27
                     A                      A                      A
 Frequencies --  1017.0446              1022.3863              1070.1088
 Red. masses --     5.4313                 1.8504                 1.7062
 Frc consts  --     3.3101                 1.1396                 1.1512
 IR Inten    --     7.3453                 0.9093                 9.4413

                    28                     29                     30
                     A                      A                      A
 Frequencies --  1076.4093              1125.2401              1160.6199
 Red. masses --     2.3116                 1.7200                 3.2760
 Frc consts  --     1.5780                 1.2831                 2.6000
 IR Inten    --     4.6128                 1.8181                 1.5778

                    31                     32                     33
                     A                      A                      A
 Frequencies --  1186.5066              1238.8444              1252.0326
 Red. masses --     1.1381                 1.9007                 1.0762
 Frc consts  --     0.9440                 1.7187                 0.9940
 IR Inten    --     3.9866                21.4054                 0.0027

                    34                     35                     36
                     A                      A                      A
 Frequencies --  1278.6650              1317.3165              1330.8767
 Red. masses --     1.8795                 5.6298                 1.6259
 Frc consts  --     1.8106                 5.7560                 1.6967
 IR Inten    --     6.7405                12.9476                 1.1928

                    37                     38                     39
                     A                      A                      A
 Frequencies --  1396.4668              1426.7871              1480.8902
 Red. masses --     1.5956                 1.2947                 2.1859
 Frc consts  --     1.8333                 1.5529                 2.8244
 IR Inten    --     1.6480                16.3441                59.8450

                    40                     41                     42
                     A                      A                      A
 Frequencies --  1502.6031              1513.0289              1520.7829
 Red. masses --     1.0459                 1.1049                 1.6133
 Frc consts  --     1.3914                 1.4903                 2.1984
 IR Inten    --     5.0169                50.4274                78.8329

                    43                     44                     45
                     A                      A                      A
 Frequencies --  1535.5759              1549.6433              1631.1374
 Red. masses --     1.3521                 2.2382                 5.9571
 Frc consts  --     1.8784                 3.1667                 9.3382
 IR Inten    --    13.5130               450.5636                22.0328

                    46                     47                     48
                     A                      A                      A
 Frequencies --  1656.1260              1777.0596              3027.4067
 Red. masses --     5.3966                 9.5213                 1.0587
 Frc consts  --     8.7208                17.7154                 5.7171
 IR Inten    --    41.0064               262.0246                19.9194

                    49                     50                     51
                     A                      A                      A
 Frequencies --  3044.2458              3063.3660              3138.2380
 Red. masses --     1.1036                 1.0353                 1.1010
 Frc consts  --     6.0258                 5.7242                 6.3888
 IR Inten    --    18.4872                 8.6930                 8.2633

                    52                     53                     54
                     A                      A                      A
 Frequencies --  3139.5823              3177.7420              3190.6444
 Red. masses --     1.1042                 1.0890                 1.0879
 Frc consts  --     6.4125                 6.4791                 6.5254
 IR Inten    --    21.6825                20.8333                 2.9941

                    55                     56                     57
                     A                      A                      A
 Frequencies --  3204.5067              3218.7515              3592.7773
 Red. masses --     1.0933                 1.0975                 1.0780
 Frc consts  --     6.6150                 6.6992                 8.1982
 IR Inten    --    17.7925                16.7680               113.1443

 - Thermochemistry -
 -------------------
 Temperature   298.150 Kelvin.  Pressure   1.00000 Atm.
 Atom     1 has atomic number  6 and mass  12.00000

 Molecular mass:   150.07931 amu.
 Principal axes and moments of inertia in atomic units:
                           1         2         3
     Eigenvalues --   539.424203480.155033997.36793
           X            0.99984  -0.01812   0.00000
           Y            0.01812   0.99984   0.00000
           Z            0.00000   0.00000   1.00000
 This molecule is an asymmetric top.
 Rotational symmetry number  1.
 Warning -- assumption of classical behavior for rotation
           may cause significant error
 Rotational temperatures (Kelvin)      0.16057     0.02489     0.02167
 Rotational constants (GHZ):           3.34568     0.51858     0.45148
 Zero-point vibrational energy     452479.8 (Joules/Mol)
                                  108.14526 (Kcal/Mol)
 Warning -- explicit consideration of  13 degrees of freedom as
           vibrations may cause significant error
 Vibrational temperatures:     35.05    66.60    84.50   152.66   230.04
          (Kelvin)            286.93   349.58   445.83   597.75   674.78
                              690.43   742.47   854.61   903.86   936.08
                              946.95  1067.71  1110.71  1198.08  1300.22
                             1398.89  1422.41  1448.34  1450.70  1463.30
                             1470.98  1539.65  1548.71  1618.97  1669.87
                             1707.12  1782.42  1801.39  1839.71  1895.32
                             1914.83  2009.20  2052.83  2130.67  2161.91
                             2176.91  2188.06  2209.35  2229.59  2346.84
                             2382.79  2556.79  4355.76  4379.99  4407.49
                             4515.22  4517.15  4572.06  4590.62  4610.56
                             4631.06  5169.20

 Zero-point correction=                           0.172340 (Hartree/Particle)
 Thermal correction to Energy=                    0.182856
 Thermal correction to Enthalpy=                  0.183800
 Thermal correction to Gibbs Free Energy=         0.134053
 Sum of electronic and zero-point Energies=           -495.445485
 Sum of electronic and thermal Energies=              -495.434970
 Sum of electronic and thermal Enthalpies=            -495.434025
 Sum of electronic and thermal Free Energies=         -495.483772

                     E (Thermal)             CV                S
                      KCal/Mol        Cal/Mol-Kelvin    Cal/Mol-Kelvin
 Total                  114.744             37.762            104.700
 Electronic               0.000              0.000              0.000
 Translational            0.889              2.981             40.928
 Rotational               0.889              2.981             30.396
 Vibrational            112.966             31.800             33.376
 Vibration     1          0.593              1.985              6.243
 Vibration     2          0.595              1.979              4.970
 Vibration     3          0.596              1.974              4.499
 Vibration     4          0.605              1.944              3.339
 Vibration     5          0.622              1.891              2.551
 Vibration     6          0.638              1.841              2.138
 Vibration     7          0.659              1.774              1.781
 Vibration     8          0.699              1.655              1.363
 Vibration     9          0.779              1.437              0.908
 Vibration    10          0.826              1.319              0.740
 Vibration    11          0.836              1.295              0.710
 Vibration    12          0.871              1.214              0.619
 Vibration    13          0.952              1.045              0.460

 Optimization completed.
    -- Stationary point found.
 Normal termination of Gaussian 09 at Fri Feb 16 20:46:21 2018.
