 Gaussian 09, Revision C.01,
 Gaussian 09:  AM64L-G09RevC.01 23-Sep-2011

 ---------------------------------------------------------
 #B3LYP/6-31G* Integral=(Grid=UltraFine) freq Opt pop=none
 ---------------------------------------------------------

 99/9=1/99;
 ----------------------------
 Optimization for frag1-conf1
 ----------------------------
 Charge =  1 Multiplicity = 1

 SCF Done:  E(RB3LYP) =  -531.717967556     A.U. after   14 cycles
 SCF Done:  E(RB3LYP) =  -531.722031014     A.U. after   14 cycles
 SCF Done:  E(RB3LYP) =  -531.722812135     A.U. after   13 cycles
 SCF Done:  E(RB3LYP) =  -531.723395883     A.U. after   12 cycles
 SCF Done:  E(RB3LYP) =  -531.723568918     A.U. after   11 cycles
 SCF Done:  E(RB3LYP) =  -531.723697126     A.U. after   10 cycles
 SCF Done:  E(RB3LYP) =  -531.723765168     A.U. after   11 cycles
 SCF Done:  E(RB3LYP) =  -531.723799790     A.U. after   10 cycles
 SCF Done:  E(RB3LYP) =  -531.723811679     A.U. after    9 cycles
 SCF Done:  E(RB3LYP) =  -531.723824011     A.U. after    9 cycles
 SCF Done:  E(RB3LYP) =  -531.724358393     A.U. after    9 cycles
 SCF Done:  E(RB3LYP) =  -531.724359484     A.U. after    9 cycles
 SCF Done:  E(RB3LYP) =  -531.724359923     A.U. after    8 cycles
 SCF Done:  E(RB3LYP) =  -531.724360035     A.U. after    7 cycles
 SCF Done:  E(RB3LYP) =  -531.724360322     A.U. after    7 cycles
 SCF Done:  E(RB3LYP) =  -531.724360565     A.U. after    8 cycles
 SCF Done:  E(RB3LYP) =  -531.724360624     A.U. after    7 cycles
 SCF Done:  E(RB3LYP) =  -531.724360665     A.U. after    7 cycles
 SCF Done:  E(RB3LYP) =  -531.724360695     A.U. after    7 cycles
 Optimization completed.
    -- Stationary point found.
 Normal termination of Gaussian 09 at Sat Feb 17 21:42:21 2018.

 --------------------------------------------------------------------
 #N Geom=AllCheck Guess=TCheck SCRF=Check GenChk RB3LYP/6-31G(d) Freq
 --------------------------------------------------------------------

 Structure from the checkpoint file:  frag1-conf1.chk
 ----------------------------
 Optimization for frag1-conf1
 ----------------------------
 Charge =  1 Multiplicity = 1

                         Standard orientation:
 ---------------------------------------------------------------------
 Center     Atomic      Atomic             Coordinates (Angstroms)
 Number     Number       Type             X           Y           Z
 ---------------------------------------------------------------------
      1          6           0       -2.528761   -0.629914   -0.011252
      2          6           0        2.876382   -0.338468    0.075840
      3          6           0       -3.616250   -1.459316    0.643028
      4          6           0       -0.216779    1.776048    0.068877
      5          6           0       -1.684352    1.668125   -0.389579
      6          6           0        0.583785    0.519034   -0.270230
      7          7           0        4.146293   -0.152361    0.477725
      8          7           0       -2.486995    0.693105    0.342012
      9          7           0        2.009881    0.674535    0.080736
     10          7           0        2.486112   -1.557517   -0.319822
     11          8           0       -1.730472   -1.104935   -0.818733
     12          1           0       -4.031704   -0.999360    1.544591
     13          1           0       -4.429374   -1.607729   -0.076722
     14          1           0       -3.214314   -2.444486    0.890152
     15          1           0       -0.177283    1.968231    1.147786
     16          1           0        0.227259    2.643455   -0.440234
     17          1           0       -2.158208    2.644998   -0.262529
     18          1           0       -1.716797    1.418793   -1.456079
     19          1           0        0.491113    0.295065   -1.338934
     20          1           0        0.188193   -0.334945    0.280834
     21          1           0        4.437332    0.708206    0.918767
     22          1           0        4.860383   -0.845126    0.303804
     23          1           0       -3.207529    1.046465    0.956124
     24          1           0        2.379327    1.612397    0.176416
     25          1           0        3.056532   -2.372383   -0.143700
     26          1           0        1.567660   -1.711487   -0.715077
 ---------------------------------------------------------------------

 SCF Done:  E(RB3LYP) =  -531.724360695     A.U. after    1 cycles

 Isotropic polarizability for W=    0.000000       90.17 Bohr**3.
 End of Minotr Frequency-dependent properties file   721 does not exist.

                     1                      2                      3
                     A                      A                      A
 Frequencies --    42.8042                51.1037                60.0852
 Red. masses --     3.6861                 3.5605                 1.8848
 Frc consts  --     0.0040                 0.0055                 0.0040
 IR Inten    --     3.7466                 0.8552                 1.5014

                     4                      5                      6
                     A                      A                      A
 Frequencies --    69.8807                83.5190               133.7213
 Red. masses --     1.5098                 3.9632                 2.9286
 Frc consts  --     0.0043                 0.0163                 0.0309
 IR Inten    --     1.2762                13.1078                 0.8770

                     7                      8                      9
                     A                      A                      A
 Frequencies --   147.8729               182.9569               202.9688
 Red. masses --     2.9527                 2.7929                 1.2024
 Frc consts  --     0.0380                 0.0551                 0.0292
 IR Inten    --    15.0614                27.6793                94.4268

                    10                     11                     12
                     A                      A                      A
 Frequencies --   238.7796               283.7804               307.9832
 Red. masses --     3.9712                 1.2897                 2.5411
 Frc consts  --     0.1334                 0.0612                 0.1420
 IR Inten    --     4.3338                 4.1543                 7.6100

                    13                     14                     15
                     A                      A                      A
 Frequencies --   334.3406               385.5223               398.9582
 Red. masses --     2.5724                 1.2054                 3.0095
 Frc consts  --     0.1694                 0.1056                 0.2822
 IR Inten    --     7.0114               367.7971                13.0308

                    16                     17                     18
                     A                      A                      A
 Frequencies --   467.6282               475.7351               509.4254
 Red. masses --     1.7174                 1.5306                 1.3456
 Frc consts  --     0.2213                 0.2041                 0.2057
 IR Inten    --    47.3869                39.2067               140.4282

                    19                     20                     21
                     A                      A                      A
 Frequencies --   544.8230               564.5046               596.5925
 Red. masses --     1.7113                 1.2173                 2.5950
 Frc consts  --     0.2993                 0.2285                 0.5442
 IR Inten    --    25.7796                 2.6310                 8.4090

                    22                     23                     24
                     A                      A                      A
 Frequencies --   626.6164               640.9992               705.9677
 Red. masses --     2.8408                 2.5077                 6.2828
 Frc consts  --     0.6572                 0.6071                 1.8449
 IR Inten    --     6.4297                 1.6197                 3.1127

                    25                     26                     27
                     A                      A                      A
 Frequencies --   816.4726               825.8256               936.8216
 Red. masses --     1.4002                 2.0600                 2.6263
 Frc consts  --     0.5499                 0.8277                 1.3580
 IR Inten    --     1.7230                 1.7400                 0.3514

                    28                     29                     30
                     A                      A                      A
 Frequencies --   958.0940               996.7473              1029.3316
 Red. masses --     2.3637                 2.9313                 1.8630
 Frc consts  --     1.2784                 1.7159                 1.1630
 IR Inten    --     1.5302                11.4423                 6.2823

                    31                     32                     33
                     A                      A                      A
 Frequencies --  1068.8214              1069.4701              1084.7441
 Red. masses --     1.7077                 1.6981                 1.9468
 Frc consts  --     1.1494                 1.1443                 1.3496
 IR Inten    --     9.3503                 5.7414                 3.2352

                    34                     35                     36
                     A                      A                      A
 Frequencies --  1107.1618              1128.0072              1145.4913
 Red. masses --     2.4298                 2.8145                 2.2816
 Frc consts  --     1.7548                 2.1100                 1.7639
 IR Inten    --     4.5329                 6.6654                14.1169

                    37                     38                     39
                     A                      A                      A
 Frequencies --  1154.0720              1249.5963              1289.2680
 Red. masses --     2.0431                 1.1974                 1.6899
 Frc consts  --     1.6033                 1.1016                 1.6550
 IR Inten    --    20.0840                12.3134                71.1563

                    40                     41                     42
                     A                      A                      A
 Frequencies --  1316.5990              1363.3323              1371.9690
 Red. masses --     1.4487                 1.0899                 1.1915
 Frc consts  --     1.4795                 1.1935                 1.3214
 IR Inten    --    39.1852                 6.5144                 5.5127

                    43                     44                     45
                     A                      A                      A
 Frequencies --  1419.8341              1424.6676              1430.6705
 Red. masses --     1.3825                 1.2709                 1.2512
 Frc consts  --     1.6420                 1.5198                 1.5089
 IR Inten    --    10.6190                31.4076                 8.0150

                    46                     47                     48
                     A                      A                      A
 Frequencies --  1460.1276              1494.7082              1500.5438
 Red. masses --     1.4099                 1.0776                 1.0805
 Frc consts  --     1.7711                 1.4185                 1.4334
 IR Inten    --    19.3318                23.1233                12.9008

                    49                     50                     51
                     A                      A                      A
 Frequencies --  1509.2465              1515.0312              1521.6148
 Red. masses --     1.0998                 1.0624                 1.0982
 Frc consts  --     1.4760                 1.4367                 1.4981
 IR Inten    --     1.0760                16.4996                14.1704

                    52                     53                     54
                     A                      A                      A
 Frequencies --  1557.7753              1611.7515              1668.0317
 Red. masses --     1.8417                 1.5141                 1.8314
 Frc consts  --     2.6332                 2.3174                 3.0022
 IR Inten    --   171.8747                 3.2234               124.6129

                    55                     56                     57
                     A                      A                      A
 Frequencies --  1717.8163              1721.8413              1762.5355
 Red. masses --     2.3733                 1.8080                 8.0601
 Frc consts  --     4.1263                 3.1582                14.7524
 IR Inten    --   552.5420               308.5664               211.0390

                    58                     59                     60
                     A                      A                      A
 Frequencies --  3037.4143              3067.8033              3072.5211
 Red. masses --     1.0635                 1.0374                 1.0701
 Frc consts  --     5.7810                 5.7522                 5.9522
 IR Inten    --    20.8379                 2.3857                 7.5920

                    61                     62                     63
                     A                      A                      A
 Frequencies --  3075.0111              3095.6595              3132.0029
 Red. masses --     1.0660                 1.0928                 1.1045
 Frc consts  --     5.9391                 6.1703                 6.3837
 IR Inten    --     7.9734                21.8030                10.5070

                    64                     65                     66
                     A                      A                      A
 Frequencies --  3135.0347              3157.9201              3162.6588
 Red. masses --     1.1012                 1.0997                 1.1026
 Frc consts  --     6.3769                 6.4616                 6.4982
 IR Inten    --     8.0356                 6.5814                 6.2591

                    67                     68                     69
                     A                      A                      A
 Frequencies --  3593.5007              3601.4918              3612.0751
 Red. masses --     1.0479                 1.0685                 1.0568
 Frc consts  --     7.9726                 8.1660                 8.1240
 IR Inten    --   174.0848                89.6111                69.0504

                    70                     71                     72
                     A                      A                      A
 Frequencies --  3623.3384              3703.0175              3714.9440
 Red. masses --     1.0784                 1.1059                 1.1063
 Frc consts  --     8.3417                 8.9344                 8.9955
 IR Inten    --    32.8180               124.1666               100.2014

 - Thermochemistry -
 -------------------
 Temperature   298.150 Kelvin.  Pressure   1.00000 Atm.
 Atom     1 has atomic number  6 and mass  12.00000

 Molecular mass:   159.12459 amu.
 Principal axes and moments of inertia in atomic units:
                           1         2         3
     Eigenvalues --   901.954643757.727174402.26546
           X            0.99999   0.00088  -0.00533
           Y           -0.00095   0.99991  -0.01367
           Z            0.00532   0.01367   0.99989
 This molecule is an asymmetric top.
 Rotational symmetry number  1.
 Warning -- assumption of classical behavior for rotation
           may cause significant error
 Rotational temperatures (Kelvin)      0.09603     0.02305     0.01967
 Rotational constants (GHZ):           2.00092     0.48027     0.40996
 Zero-point vibrational energy     604526.8 (Joules/Mol)
                                  144.48536 (Kcal/Mol)
 Warning -- explicit consideration of  21 degrees of freedom as
           vibrations may cause significant error
 Vibrational temperatures:     61.59    73.53    86.45   100.54   120.17
          (Kelvin)            192.39   212.76   263.23   292.03   343.55
                              408.30   443.12   481.04   554.68   574.01
                              672.81   684.48   732.95   783.88   812.20
                              858.36   901.56   922.25  1015.73  1174.72
                             1188.18  1347.88  1378.48  1434.10  1480.98
                             1537.79  1538.73  1560.70  1592.96  1622.95
                             1648.10  1660.45  1797.89  1854.97  1894.29
                             1961.53  1973.95  2042.82  2049.78  2058.41
                             2100.80  2150.55  2158.95  2171.47  2179.79
                             2189.26  2241.29  2318.95  2399.92  2471.55
                             2477.34  2535.89  4370.16  4413.88  4420.67
                             4424.25  4453.96  4506.25  4510.61  4543.54
                             4550.35  5170.24  5181.74  5196.96  5213.17
                             5327.81  5344.97

 Zero-point correction=                           0.230252 (Hartree/Particle)
 Thermal correction to Energy=                    0.244204
 Thermal correction to Enthalpy=                  0.245148
 Thermal correction to Gibbs Free Energy=         0.188784
 Sum of electronic and zero-point Energies=           -531.494109
 Sum of electronic and thermal Energies=              -531.480157
 Sum of electronic and thermal Enthalpies=            -531.479212
 Sum of electronic and thermal Free Energies=         -531.535577

                     E (Thermal)             CV                S
                      KCal/Mol        Cal/Mol-Kelvin    Cal/Mol-Kelvin
 Total                  153.240             49.415            118.628
 Electronic               0.000              0.000              0.000
 Translational            0.889              2.981             41.103
 Rotational               0.889              2.981             31.079
 Vibrational            151.463             43.453             46.446
 Vibration     1          0.595              1.980              5.125
 Vibration     2          0.595              1.977              4.774
 Vibration     3          0.597              1.973              4.454
 Vibration     4          0.598              1.968              4.157
 Vibration     5          0.600              1.961              3.806
 Vibration     6          0.613              1.920              2.892
 Vibration     7          0.617              1.905              2.699
 Vibration     8          0.630              1.863              2.298
 Vibration     9          0.639              1.836              2.106
 Vibration    10          0.657              1.781              1.812
 Vibration    11          0.682              1.704              1.511
 Vibration    12          0.698              1.659              1.373
 Vibration    13          0.716              1.607              1.239
 Vibration    14          0.754              1.501              1.017
 Vibration    15          0.765              1.472              0.966
 Vibration    16          0.825              1.322              0.744
 Vibration    17          0.832              1.304              0.722
 Vibration    18          0.865              1.229              0.635
 Vibration    19          0.900              1.151              0.555
 Vibration    20          0.920              1.108              0.515
 Vibration    21          0.954              1.039              0.456

 Optimization completed.
    -- Stationary point found.
 Normal termination of Gaussian 09 at Sat Feb 17 21:55:17 2018.
