 Gaussian 09, Revision C.01,
 Gaussian 09:  AM64L-G09RevC.01 23-Sep-2011

 ----------------------------------------------------------------------
 #HF/6-31G* Geom=AllCheck Guess=Read Pop=(MK,ReadRadii) Integral=(Grid=
 UltraFine) iop(6/33=2)
 ----------------------------------------------------------------------

 Structure from the checkpoint file:  frag1-conf1.chk
 ----------------------------
 Optimization for frag1-conf1
 ----------------------------
 Charge =  1 Multiplicity = 1

                         Standard orientation:
 ---------------------------------------------------------------------
 Center     Atomic      Atomic             Coordinates (Angstroms)
 Number     Number       Type             X           Y           Z
 ---------------------------------------------------------------------
      1          6           0       -2.528761   -0.629914   -0.011252
      2          6           0        2.876382   -0.338468    0.075840
      3          6           0       -3.616250   -1.459316    0.643028
      4          6           0       -0.216779    1.776048    0.068877
      5          6           0       -1.684352    1.668125   -0.389579
      6          6           0        0.583785    0.519034   -0.270230
      7          7           0        4.146293   -0.152361    0.477725
      8          7           0       -2.486995    0.693105    0.342012
      9          7           0        2.009881    0.674535    0.080736
     10          7           0        2.486112   -1.557517   -0.319822
     11          8           0       -1.730472   -1.104935   -0.818733
     12          1           0       -4.031704   -0.999360    1.544591
     13          1           0       -4.429374   -1.607729   -0.076722
     14          1           0       -3.214314   -2.444486    0.890152
     15          1           0       -0.177283    1.968231    1.147786
     16          1           0        0.227259    2.643455   -0.440234
     17          1           0       -2.158208    2.644998   -0.262529
     18          1           0       -1.716797    1.418793   -1.456079
     19          1           0        0.491113    0.295065   -1.338934
     20          1           0        0.188193   -0.334945    0.280834
     21          1           0        4.437332    0.708206    0.918767
     22          1           0        4.860383   -0.845126    0.303804
     23          1           0       -3.207529    1.046465    0.956124
     24          1           0        2.379327    1.612397    0.176416
     25          1           0        3.056532   -2.372383   -0.143700
     26          1           0        1.567660   -1.711487   -0.715077
 ---------------------------------------------------------------------

 SCF Done:  E(RHF) =  -528.447900319     A.U. after   13 cycles

 The electronic state is 1-A.
 Alpha  occ. eigenvalues --  -20.62991 -15.77805 -15.77669 -15.77400 -15.69745
 Alpha  occ. eigenvalues --  -11.58226 -11.46049 -11.41046 -11.38536 -11.36407
 Alpha  occ. eigenvalues --  -11.33084  -1.51930  -1.48053  -1.38356  -1.37044
 Alpha  occ. eigenvalues --   -1.33468  -1.19057  -1.11077  -1.06749  -1.02221
 Alpha  occ. eigenvalues --   -0.97448  -0.94514  -0.91656  -0.88856  -0.84850
 Alpha  occ. eigenvalues --   -0.84312  -0.80991  -0.80207  -0.76911  -0.76457
 Alpha  occ. eigenvalues --   -0.73692  -0.71785  -0.69390  -0.68495  -0.66513
 Alpha  occ. eigenvalues --   -0.65435  -0.63229  -0.62201  -0.60172  -0.59963
 Alpha  occ. eigenvalues --   -0.56550  -0.52544  -0.49899
 Alpha virt. eigenvalues --    0.02418   0.03799   0.08251   0.08410   0.09621
 Alpha virt. eigenvalues --    0.10465   0.11230   0.13241   0.14935   0.16469
 Alpha virt. eigenvalues --    0.17250   0.19442   0.20598   0.21451   0.22584

 Mulliken atomic charges:
              1
     1  C    0.754416
     2  C    1.057292
     3  C   -0.582289
     4  C   -0.345475
     5  C   -0.128211
     6  C   -0.127919
     7  N   -0.931788
     8  N   -0.797144
     9  N   -0.820722
    10  N   -0.930416
    11  O   -0.654000
    12  H    0.186413
    13  H    0.227899
    14  H    0.219008
    15  H    0.195050
    16  H    0.180849
    17  H    0.207787
    18  H    0.215952
    19  H    0.222999
    20  H    0.230337
    21  H    0.440231
    22  H    0.440909
    23  H    0.403135
    24  H    0.423706
    25  H    0.440179
    26  H    0.471801
 Sum of Mulliken atomic charges =   1.00000

 Dipole moment (field-independent basis, Debye):
    X=              8.4437    Y=              0.9853    Z=              2.3677  Tot=              8.8246
 Quadrupole moment (field-independent basis, Debye-Ang):
   XX=             -0.0594   YY=            -49.5586   ZZ=            -66.7705
   XY=             -8.2524   XZ=             -1.6242   YZ=             -0.3544

 Normal termination of Gaussian 09 at Sun Feb 18 17:06:33 2018.
