 Gaussian 09, Revision C.01,
 Gaussian 09:  AM64L-G09RevC.01 23-Sep-2011

 ---------------------------------------------------------
 #B3LYP/6-31G* Integral=(Grid=UltraFine) freq Opt pop=none
 ---------------------------------------------------------

 99/9=1/99;
 -----------------------------
 Optimization for frag18-conf1
 -----------------------------
 Charge =  1 Multiplicity = 1

 SCF Done:  E(RB3LYP) =  -535.301221682     A.U. after   16 cycles
 SCF Done:  E(RB3LYP) =  -535.306307181     A.U. after   14 cycles
 SCF Done:  E(RB3LYP) =  -535.307234738     A.U. after   12 cycles
 SCF Done:  E(RB3LYP) =  -535.307603861     A.U. after   12 cycles
 SCF Done:  E(RB3LYP) =  -535.307752207     A.U. after   12 cycles
 SCF Done:  E(RB3LYP) =  -535.307892055     A.U. after   11 cycles
 SCF Done:  E(RB3LYP) =  -535.307977266     A.U. after   11 cycles
 SCF Done:  E(RB3LYP) =  -535.308030883     A.U. after   11 cycles
 SCF Done:  E(RB3LYP) =  -535.308066752     A.U. after   10 cycles
 SCF Done:  E(RB3LYP) =  -535.308082391     A.U. after   10 cycles
 SCF Done:  E(RB3LYP) =  -535.308288950     A.U. after   11 cycles
 SCF Done:  E(RB3LYP) =  -535.308309900     A.U. after   11 cycles
 SCF Done:  E(RB3LYP) =  -535.308300774     A.U. after   11 cycles
 SCF Done:  E(RB3LYP) =  -535.308323495     A.U. after   11 cycles
 SCF Done:  E(RB3LYP) =  -535.308328404     A.U. after   11 cycles
 SCF Done:  E(RB3LYP) =  -535.308331045     A.U. after   10 cycles
 SCF Done:  E(RB3LYP) =  -535.308331672     A.U. after    9 cycles
 SCF Done:  E(RB3LYP) =  -535.308331849     A.U. after    8 cycles
 SCF Done:  E(RB3LYP) =  -535.308331875     A.U. after    7 cycles
 Optimization completed.
    -- Stationary point found.
 Normal termination of Gaussian 09 at Fri Feb 16 19:02:39 2018.

 --------------------------------------------------------------------
 #N Geom=AllCheck Guess=TCheck SCRF=Check GenChk RB3LYP/6-31G(d) Freq
 --------------------------------------------------------------------

 Structure from the checkpoint file:  frag18-conf1.chk
 -----------------------------
 Optimization for frag18-conf1
 -----------------------------
 Charge =  1 Multiplicity = 1

                         Standard orientation:
 ---------------------------------------------------------------------
 Center     Atomic      Atomic             Coordinates (Angstroms)
 Number     Number       Type             X           Y           Z
 ---------------------------------------------------------------------
      1          6           0        1.482418    1.822755    0.083224
      2          6           0        0.326121    1.132518   -0.274092
      3          6           0        2.661172    1.124028    0.288530
      4          6           0        1.572497   -0.907315   -0.203258
      5          6           0        0.362885   -0.266525   -0.419930
      6          6           0       -2.884141    0.031885    0.082254
      7          6           0       -4.111431   -0.133145    0.951893
      8          6           0        3.948227   -0.966408    0.397502
      9          6           0       -0.875159   -1.052393   -0.832359
     10          7           0        2.691762   -0.219889    0.142526
     11          7           0       -1.957865   -0.986348    0.137399
     12          8           0       -2.704176    1.002710   -0.645519
     13          1           0        1.481917    2.901138    0.196477
     14          1           0       -0.615031    1.647378   -0.450114
     15          1           0        3.592545    1.602732    0.565891
     16          1           0        1.691428   -1.980778   -0.301605
     17          1           0       -4.337036    0.821942    1.431936
     18          1           0       -4.963763   -0.387730    0.312076
     19          1           0       -4.004245   -0.908763    1.715693
     20          1           0        3.919058   -1.391705    1.403632
     21          1           0        4.047706   -1.761543   -0.342286
     22          1           0        4.792916   -0.283926    0.308682
     23          1           0       -1.239135   -0.642992   -1.781189
     24          1           0       -0.613060   -2.101606   -0.994406
     25          1           0       -2.152702   -1.804574    0.697310
 ---------------------------------------------------------------------

 SCF Done:  E(RB3LYP) =  -535.308331875     A.U. after    1 cycles

 Isotropic polarizability for W=    0.000000      103.98 Bohr**3.
 End of Minotr Frequency-dependent properties file   721 does not exist.

                     1                      2                      3
                     A                      A                      A
 Frequencies --    23.3246                32.0498                55.2605
 Red. masses --     3.6334                 1.0514                 1.1344
 Frc consts  --     0.0012                 0.0006                 0.0020
 IR Inten    --     0.7308                 0.0463                 2.0155

                     4                      5                      6
                     A                      A                      A
 Frequencies --    75.5459               108.5132               172.9670
 Red. masses --     2.9845                 5.3291                 4.2679
 Frc consts  --     0.0100                 0.0370                 0.0752
 IR Inten    --     7.7393                11.2994                 4.3070

                     7                      8                      9
                     A                      A                      A
 Frequencies --   195.1544               203.1122               287.5642
 Red. masses --     5.3310                 3.2117                 4.1430
 Frc consts  --     0.1196                 0.0781                 0.2019
 IR Inten    --     7.9898                 1.8810                 3.2141

                    10                     11                     12
                     A                      A                      A
 Frequencies --   309.7850               412.0420               420.0594
 Red. masses --     2.1694                 2.2398                 1.3792
 Frc consts  --     0.1227                 0.2241                 0.1434
 IR Inten    --    10.0975                11.3172                64.0842

                    13                     14                     15
                     A                      A                      A
 Frequencies --   424.7673               460.7074               508.0026
 Red. masses --     2.6270                 2.9308                 4.2536
 Frc consts  --     0.2793                 0.3665                 0.6468
 IR Inten    --     9.4879                11.7828                 5.4896

                    16                     17                     18
                     A                      A                      A
 Frequencies --   541.2488               599.6115               640.6610
 Red. masses --     5.2098                 3.6184                 2.9154
 Frc consts  --     0.8992                 0.7665                 0.7050
 IR Inten    --     1.6020                 4.2563                 0.7882

                    19                     20                     21
                     A                      A                      A
 Frequencies --   665.7170               705.3531               759.7577
 Red. masses --     4.0174                 2.5012                 4.3373
 Frc consts  --     1.0490                 0.7332                 1.4751
 IR Inten    --     8.6120                22.9991                 7.2888

                    22                     23                     24
                     A                      A                      A
 Frequencies --   837.1828               845.0111               916.1327
 Red. masses --     1.4519                 2.5592                 1.7583
 Frc consts  --     0.5996                 1.0767                 0.8695
 IR Inten    --    20.7749                 6.1313                 5.1566

                    25                     26                     27
                     A                      A                      A
 Frequencies --   935.7214               977.7913              1002.9440
 Red. masses --     2.8980                 1.3231                 1.6322
 Frc consts  --     1.4950                 0.7453                 0.9673
 IR Inten    --     8.8107                 0.1991                 5.0240

                    28                     29                     30
                     A                      A                      A
 Frequencies --  1043.7164              1051.2840              1068.7073
 Red. masses --     2.3146                 5.4853                 1.4309
 Frc consts  --     1.4856                 3.5718                 0.9629
 IR Inten    --     9.7164                 0.6280                 1.2098

                    31                     32                     33
                     A                      A                      A
 Frequencies --  1070.7267              1100.8770              1117.3110
 Red. masses --     1.7342                 1.7882                 2.8788
 Frc consts  --     1.1714                 1.2769                 2.1175
 IR Inten    --    10.1086                 2.2791                14.1921

                    34                     35                     36
                     A                      A                      A
 Frequencies --  1157.0705              1164.2012              1192.5828
 Red. masses --     1.3453                 1.4708                 1.6693
 Frc consts  --     1.0612                 1.1745                 1.3988
 IR Inten    --     4.1255                 7.9783                14.6301

                    37                     38                     39
                     A                      A                      A
 Frequencies --  1236.3259              1256.7613              1278.3140
 Red. masses --     1.2541                 3.3051                 2.2303
 Frc consts  --     1.1294                 3.0756                 2.1472
 IR Inten    --    12.1236                72.8371                66.0077

                    40                     41                     42
                     A                      A                      A
 Frequencies --  1309.7265              1366.3858              1387.5231
 Red. masses --     1.4530                 3.1065                 1.3077
 Frc consts  --     1.4685                 3.4172                 1.4833
 IR Inten    --    50.4572                 3.5251                 8.2547

                    43                     44                     45
                     A                      A                      A
 Frequencies --  1411.3937              1429.9115              1470.3790
 Red. masses --     1.2885                 1.2390                 1.2626
 Frc consts  --     1.5123                 1.4926                 1.6083
 IR Inten    --    24.8860                19.5017                 3.3954

                    46                     47                     48
                     A                      A                      A
 Frequencies --  1488.3521              1493.6316              1497.5247
 Red. masses --     1.1159                 1.0903                 1.4520
 Frc consts  --     1.4564                 1.4332                 1.9186
 IR Inten    --    15.7057                28.4512                 2.7693

                    49                     50                     51
                     A                      A                      A
 Frequencies --  1511.8957              1513.3942              1529.0003
 Red. masses --     1.0854                 1.0702                 1.3829
 Frc consts  --     1.4618                 1.4442                 1.9048
 IR Inten    --    19.8980                21.4752                17.5845

                    52                     53                     54
                     A                      A                      A
 Frequencies --  1538.9872              1551.3409              1634.7594
 Red. masses --     1.7692                 1.9880                 5.0871
 Frc consts  --     2.4689                 2.8189                 8.0099
 IR Inten    --   105.4399               123.3992                 8.0729

                    55                     56                     57
                     A                      A                      A
 Frequencies --  1678.2893              1772.9803              3070.0869
 Red. masses --     4.6540                 8.7846                 1.0369
 Frc consts  --     7.7235                16.2697                 5.7584
 IR Inten    --    18.3936               165.2089                 2.2876

                    58                     59                     60
                     A                      A                      A
 Frequencies --  3075.3548              3096.9853              3129.6713
 Red. masses --     1.0603                 1.0328                 1.1057
 Frc consts  --     5.9084                 5.8363                 6.3808
 IR Inten    --    12.0165                 1.7444                 5.0540

                    61                     62                     63
                     A                      A                      A
 Frequencies --  3138.8504              3163.8295              3183.1223
 Red. masses --     1.1015                 1.1029                 1.1068
 Frc consts  --     6.3943                 6.5047                 6.6075
 IR Inten    --     6.8816                 4.2839                 0.4518

                    64                     65                     66
                     A                      A                      A
 Frequencies --  3203.0227              3213.4262              3237.6125
 Red. masses --     1.1078                 1.0946                 1.0936
 Frc consts  --     6.6961                 6.6593                 6.7543
 IR Inten    --     0.2213                44.3823                 1.1422

                    67                     68                     69
                     A                      A                      A
 Frequencies --  3241.2494              3257.8820              3627.0375
 Red. masses --     1.0926                 1.0973                 1.0788
 Frc consts  --     6.7627                 6.8617                 8.3619
 IR Inten    --     4.4194                 3.3107                33.8635

 - Thermochemistry -
 -------------------
 Temperature   298.150 Kelvin.  Pressure   1.00000 Atm.
 Atom     1 has atomic number  6 and mass  12.00000

 Molecular mass:   165.10279 amu.
 Principal axes and moments of inertia in atomic units:
                           1         2         3
     Eigenvalues --   765.830053930.484924370.94137
           X            0.99998  -0.00032  -0.00550
           Y            0.00037   0.99995   0.01043
           Z            0.00550  -0.01043   0.99993
 This molecule is an asymmetric top.
 Rotational symmetry number  1.
 Warning -- assumption of classical behavior for rotation
           may cause significant error
 Rotational temperatures (Kelvin)      0.11310     0.02204     0.01982
 Rotational constants (GHZ):           2.35658     0.45917     0.41290
 Zero-point vibrational energy     562708.2 (Joules/Mol)
                                  134.49050 (Kcal/Mol)
 Warning -- explicit consideration of  17 degrees of freedom as
           vibrations may cause significant error
 Vibrational temperatures:     33.56    46.11    79.51   108.69   156.13
          (Kelvin)            248.86   280.78   292.23   413.74   445.71
                              592.84   604.37   611.14   662.85   730.90
                              778.74   862.71   921.77   957.82  1014.84
                             1093.12  1204.52  1215.78  1318.11  1346.29
                             1406.82  1443.01  1501.67  1512.56  1537.63
                             1540.54  1583.91  1607.56  1664.76  1675.02
                             1715.86  1778.80  1808.20  1839.21  1884.40
                             1965.92  1996.33  2030.68  2057.32  2115.54
                             2141.40  2149.00  2154.60  2175.28  2177.43
                             2199.89  2214.26  2232.03  2352.05  2414.68
                             2550.92  4417.16  4424.74  4455.87  4502.89
                             4516.10  4552.04  4579.80  4608.43  4623.40
                             4658.20  4663.43  4687.36  5218.49

 Zero-point correction=                           0.214324 (Hartree/Particle)
 Thermal correction to Energy=                    0.226651
 Thermal correction to Enthalpy=                  0.227595
 Thermal correction to Gibbs Free Energy=         0.173573
 Sum of electronic and zero-point Energies=           -535.094008
 Sum of electronic and thermal Energies=              -535.081681
 Sum of electronic and thermal Enthalpies=            -535.080737
 Sum of electronic and thermal Free Energies=         -535.134759

                     E (Thermal)             CV                S
                      KCal/Mol        Cal/Mol-Kelvin    Cal/Mol-Kelvin
 Total                  142.226             44.368            113.699
 Electronic               0.000              0.000              0.000
 Translational            0.889              2.981             41.213
 Rotational               0.889              2.981             30.954
 Vibrational            140.448             38.407             41.532
 Vibration     1          0.593              1.985              6.329
 Vibration     2          0.594              1.983              5.698
 Vibration     3          0.596              1.975              4.620
 Vibration     4          0.599              1.965              4.003
 Vibration     5          0.606              1.942              3.295
 Vibration     6          0.626              1.876              2.403
 Vibration     7          0.636              1.847              2.178
 Vibration     8          0.639              1.835              2.105
 Vibration     9          0.685              1.697              1.488
 Vibration    10          0.699              1.655              1.363
 Vibration    11          0.776              1.444              0.919
 Vibration    12          0.783              1.427              0.892
 Vibration    13          0.787              1.416              0.876
 Vibration    14          0.819              1.337              0.764
 Vibration    15          0.863              1.232              0.638
 Vibration    16          0.896              1.159              0.563
 Vibration    17          0.958              1.033              0.450

 Normal termination of Gaussian 09 at Fri Feb 16 19:20:27 2018.
