 Gaussian 09, Revision C.01,
 Gaussian 09:  AM64L-G09RevC.01 23-Sep-2011

 ----------------------------------------------------------------------
 #HF/6-31G* Geom=AllCheck Guess=Read Pop=(MK,ReadRadii) Integral=(Grid=
 UltraFine) iop(6/33=2)
 ----------------------------------------------------------------------

 Structure from the checkpoint file:  frag18-conf1.chk
 -----------------------------
 Optimization for frag18-conf1
 -----------------------------
 Charge =  1 Multiplicity = 1

                         Standard orientation:
 ---------------------------------------------------------------------
 Center     Atomic      Atomic             Coordinates (Angstroms)
 Number     Number       Type             X           Y           Z
 ---------------------------------------------------------------------
      1          6           0        1.482418    1.822755    0.083224
      2          6           0        0.326121    1.132518   -0.274092
      3          6           0        2.661172    1.124028    0.288530
      4          6           0        1.572497   -0.907315   -0.203258
      5          6           0        0.362885   -0.266525   -0.419930
      6          6           0       -2.884141    0.031885    0.082254
      7          6           0       -4.111431   -0.133145    0.951893
      8          6           0        3.948227   -0.966408    0.397502
      9          6           0       -0.875159   -1.052393   -0.832359
     10          7           0        2.691762   -0.219889    0.142526
     11          7           0       -1.957865   -0.986348    0.137399
     12          8           0       -2.704176    1.002710   -0.645519
     13          1           0        1.481917    2.901138    0.196477
     14          1           0       -0.615031    1.647378   -0.450114
     15          1           0        3.592545    1.602732    0.565891
     16          1           0        1.691428   -1.980778   -0.301605
     17          1           0       -4.337036    0.821942    1.431936
     18          1           0       -4.963763   -0.387730    0.312076
     19          1           0       -4.004245   -0.908763    1.715693
     20          1           0        3.919058   -1.391705    1.403632
     21          1           0        4.047706   -1.761543   -0.342286
     22          1           0        4.792916   -0.283926    0.308682
     23          1           0       -1.239135   -0.642992   -1.781189
     24          1           0       -0.613060   -2.101606   -0.994406
     25          1           0       -2.152702   -1.804574    0.697310
 ---------------------------------------------------------------------

 SCF Done:  E(RHF) =  -531.959968115     A.U. after   13 cycles

 The electronic state is 1-A.
 Alpha  occ. eigenvalues --  -20.64263 -15.84910 -15.71555 -11.48416 -11.47972
 Alpha  occ. eigenvalues --  -11.47282 -11.44487 -11.43255 -11.42522 -11.41897
 Alpha  occ. eigenvalues --  -11.41883 -11.33840  -1.51088  -1.49563  -1.35553
 Alpha  occ. eigenvalues --   -1.28972  -1.24016  -1.15326  -1.13259  -1.08516
 Alpha  occ. eigenvalues --   -1.04223  -1.00868  -0.91274  -0.89936  -0.86989
 Alpha  occ. eigenvalues --   -0.83285  -0.81837  -0.80465  -0.79412  -0.78675
 Alpha  occ. eigenvalues --   -0.77498  -0.73984  -0.72639  -0.70805  -0.70381
 Alpha  occ. eigenvalues --   -0.69336  -0.69035  -0.67611  -0.65505  -0.61687
 Alpha  occ. eigenvalues --   -0.56061  -0.53994  -0.52660  -0.51634
 Alpha virt. eigenvalues --   -0.09039  -0.04157   0.06144   0.08002   0.09410
 Alpha virt. eigenvalues --    0.10694   0.12008   0.13254   0.13913   0.15548
 Alpha virt. eigenvalues --    0.16470   0.16996   0.17636   0.19171   0.20321

 Mulliken atomic charges:
              1
     1  C   -0.278424
     2  C   -0.098160
     3  C    0.161529
     4  C    0.135963
     5  C   -0.052064
     6  C    0.759104
     7  C   -0.583042
     8  C   -0.329751
     9  C   -0.165845
    10  N   -0.597012
    11  N   -0.795593
    12  O   -0.629119
    13  H    0.290206
    14  H    0.353500
    15  H    0.295389
    16  H    0.283373
    17  H    0.231195
    18  H    0.233064
    19  H    0.185484
    20  H    0.247662
    21  H    0.239259
    22  H    0.238392
    23  H    0.256706
    24  H    0.212287
    25  H    0.405898
 Sum of Mulliken atomic charges =   1.00000

 Dipole moment (field-independent basis, Debye):
    X=              7.8118    Y=             -3.0631    Z=              2.0920  Tot=              8.6478
 Quadrupole moment (field-independent basis, Debye-Ang):
   XX=            -22.7034   YY=            -54.6510   ZZ=            -69.2764
   XY=              6.9245   XZ=             -2.6519   YZ=              2.2760

 Normal termination of Gaussian 09 at Sat Feb 17 20:58:38 2018.
