 Gaussian 09, Revision C.01,
 Gaussian 09:  AM64L-G09RevC.01 23-Sep-2011

 ---------------------------------------------------------
 #B3LYP/6-31G* Integral=(Grid=UltraFine) freq Opt pop=none
 ---------------------------------------------------------

 99/9=1/99;
 -----------------------------
 Optimization for frag40-conf2
 -----------------------------
 Charge =  1 Multiplicity = 1

 SCF Done:  E(RB3LYP) =  -825.556170639     A.U. after   15 cycles
 SCF Done:  E(RB3LYP) =  -825.567059346     A.U. after   13 cycles
 SCF Done:  E(RB3LYP) =  -825.568861564     A.U. after   15 cycles
 SCF Done:  E(RB3LYP) =  -825.569286702     A.U. after   13 cycles
 SCF Done:  E(RB3LYP) =  -825.569967493     A.U. after   13 cycles
 SCF Done:  E(RB3LYP) =  -825.570468121     A.U. after   13 cycles
 SCF Done:  E(RB3LYP) =  -825.570803004     A.U. after   12 cycles
 SCF Done:  E(RB3LYP) =  -825.571148501     A.U. after   11 cycles
 SCF Done:  E(RB3LYP) =  -825.571303889     A.U. after   13 cycles
 SCF Done:  E(RB3LYP) =  -825.571514763     A.U. after   12 cycles
 SCF Done:  E(RB3LYP) =  -825.572433747     A.U. after   10 cycles
 SCF Done:  E(RB3LYP) =  -825.572453710     A.U. after   10 cycles
 SCF Done:  E(RB3LYP) =  -825.572462299     A.U. after    9 cycles
 SCF Done:  E(RB3LYP) =  -825.572466910     A.U. after   10 cycles
 SCF Done:  E(RB3LYP) =  -825.572469006     A.U. after    9 cycles
 SCF Done:  E(RB3LYP) =  -825.572470138     A.U. after    8 cycles
 SCF Done:  E(RB3LYP) =  -825.572470339     A.U. after    7 cycles
 SCF Done:  E(RB3LYP) =  -825.572470386     A.U. after    7 cycles
 SCF Done:  E(RB3LYP) =  -825.572470407     A.U. after    6 cycles
 Optimization completed.
    -- Stationary point found.
 Normal termination of Gaussian 09 at Fri Feb 16 23:07:16 2018.

 --------------------------------------------------------------------
 #N Geom=AllCheck Guess=TCheck SCRF=Check GenChk RB3LYP/6-31G(d) Freq
 --------------------------------------------------------------------

 Structure from the checkpoint file:  frag40-conf2.chk
 -----------------------------
 Optimization for frag40-conf2
 -----------------------------
 Charge =  1 Multiplicity = 1

                         Standard orientation:
 ---------------------------------------------------------------------
 Center     Atomic      Atomic             Coordinates (Angstroms)
 Number     Number       Type             X           Y           Z
 ---------------------------------------------------------------------
      1          6           0        3.226722    0.243484    0.010421
      2          6           0       -1.209275    1.690946   -0.306317
      3          6           0       -1.643250   -3.706403   -0.354723
      4          6           0       -2.299899   -2.602683   -1.195543
      5          6           0       -1.406799   -3.243525    1.089853
      6          6           0       -1.483896   -1.299084   -1.159143
      7          6           0       -0.592341   -1.939502    1.142409
      8          6           0       -1.257658   -0.832372    0.295822
      9          6           0        5.686989    0.064296    0.030919
     10          6           0       -2.999430    3.319586   -0.458705
     11          6           0       -2.814302    1.956530    1.593074
     12          6           0        2.004106    1.153881    0.274720
     13          6           0       -0.491679    0.511854    0.406706
     14          7           0        4.431590    0.800346    0.190310
     15          7           0       -2.275860    2.271399    0.271186
     16          7           0        0.834575    0.430229   -0.306574
     17          8           0        3.013842   -0.924436   -0.320501
     18          8           0       -0.761814    2.018362   -1.416625
     19          1           0       -2.267406   -4.606834   -0.362299
     20          1           0       -0.682941   -3.989084   -0.809559
     21          1           0       -2.415569   -2.928585   -2.235084
     22          1           0       -3.312453   -2.403794   -0.816457
     23          1           0       -2.374014   -3.081932    1.586595
     24          1           0       -0.888212   -4.019916    1.663144
     25          1           0       -0.516186   -1.483875   -1.650559
     26          1           0       -1.985857   -0.518654   -1.742726
     27          1           0       -0.485912   -1.602305    2.182647
     28          1           0        0.424924   -2.143437    0.774029
     29          1           0       -2.246654   -0.638269    0.733086
     30          1           0        5.444498   -0.964390   -0.233560
     31          1           0        6.253339    0.076898    0.966472
     32          1           0        6.288757    0.512288   -0.764922
     33          1           0       -4.052236    3.035441   -0.558757
     34          1           0       -2.554913    3.440525   -1.444287
     35          1           0       -2.938689    4.264187    0.092470
     36          1           0       -2.915237    2.881661    2.170306
     37          1           0       -2.165678    1.279555    2.147193
     38          1           0       -3.805344    1.496919    1.503231
     39          1           0        2.085678    2.141532   -0.184612
     40          1           0        1.855913    1.273096    1.351643
     41          1           0       -0.280366    0.730222    1.456081
     42          1           0        4.485224    1.780283    0.437992
     43          1           0        0.605430    0.846179   -1.238775
     44          1           0        1.179804   -0.544992   -0.427682
 ---------------------------------------------------------------------

 SCF Done:  E(RB3LYP) =  -825.572470407     A.U. after    1 cycles

 Isotropic polarizability for W=    0.000000      160.82 Bohr**3.
 End of Minotr Frequency-dependent properties file   721 does not exist.

                     1                      2                      3
                     A                      A                      A
 Frequencies --    19.7449                30.8346                51.9104
 Red. masses --     4.1309                 3.3151                 2.9582
 Frc consts  --     0.0009                 0.0019                 0.0047
 IR Inten    --     0.9308                 1.9689                 0.8184

                     4                      5                      6
                     A                      A                      A
 Frequencies --    58.4393                63.1362                69.9776
 Red. masses --     1.4687                 2.8436                 2.2289
 Frc consts  --     0.0030                 0.0067                 0.0064
 IR Inten    --     3.1530                 1.5338                 4.6495

                     7                      8                      9
                     A                      A                      A
 Frequencies --    75.5645               106.2794               114.8066
 Red. masses --     2.2877                 1.3901                 2.2735
 Frc consts  --     0.0077                 0.0093                 0.0177
 IR Inten    --     2.1470                 1.4718                 2.8933

                    10                     11                     12
                     A                      A                      A
 Frequencies --   130.0820               142.4881               166.8383
 Red. masses --     1.5683                 3.1378                 3.3806
 Frc consts  --     0.0156                 0.0375                 0.0554
 IR Inten    --     0.6590                 3.1087                 2.2865

                    13                     14                     15
                     A                      A                      A
 Frequencies --   174.3330               198.6975               217.1064
 Red. masses --     2.6436                 3.3562                 4.2463
 Frc consts  --     0.0473                 0.0781                 0.1179
 IR Inten    --     2.5649                 5.7037                 1.3568

                    16                     17                     18
                     A                      A                      A
 Frequencies --   228.9007               263.2244               285.5165
 Red. masses --     1.9495                 2.6619                 2.9611
 Frc consts  --     0.0602                 0.1087                 0.1422
 IR Inten    --     0.1554                 4.6291                 0.7357

                    19                     20                     21
                     A                      A                      A
 Frequencies --   296.1306               317.8189               341.2552
 Red. masses --     2.8031                 3.7817                 1.8331
 Frc consts  --     0.1448                 0.2251                 0.1258
 IR Inten    --     5.6260                24.4649                 0.5683

                    22                     23                     24
                     A                      A                      A
 Frequencies --   408.8291               424.0549               435.6868
 Red. masses --     2.5656                 3.8971                 2.9211
 Frc consts  --     0.2527                 0.4129                 0.3267
 IR Inten    --     4.4477                53.7497                28.2415

                    25                     26                     27
                     A                      A                      A
 Frequencies --   444.5745               459.4605               492.4242
 Red. masses --     3.1456                 2.8895                 1.8545
 Frc consts  --     0.3663                 0.3594                 0.2649
 IR Inten    --    19.0445                41.8096                24.0591

                    28                     29                     30
                     A                      A                      A
 Frequencies --   505.6564               533.3889               612.4376
 Red. masses --     1.7467                 2.5000                 2.3162
 Frc consts  --     0.2631                 0.4191                 0.5119
 IR Inten    --    42.7235                58.8185                26.3291

                    31                     32                     33
                     A                      A                      A
 Frequencies --   626.2140               640.0518               699.6531
 Red. masses --     3.1889                 3.7142                 3.8277
 Frc consts  --     0.7368                 0.8965                 1.1040
 IR Inten    --     6.7551                29.5628                 6.2177

                    34                     35                     36
                     A                      A                      A
 Frequencies --   733.3805               787.3397               798.4675
 Red. masses --     3.8385                 2.7646                 1.6618
 Frc consts  --     1.2164                 1.0097                 0.6242
 IR Inten    --     5.6627                24.2122                 2.0326

                    37                     38                     39
                     A                      A                      A
 Frequencies --   810.8431               853.9728               880.0900
 Red. masses --     2.6014                 2.5453                 1.9855
 Frc consts  --     1.0077                 1.0937                 0.9061
 IR Inten    --     7.2747                 1.7007                 1.5295

                    40                     41                     42
                     A                      A                      A
 Frequencies --   893.7943               912.8952               927.7749
 Red. masses --     2.4875                 1.8988                 1.5356
 Frc consts  --     1.1708                 0.9323                 0.7788
 IR Inten    --    19.7427                 4.4903                 1.7356

                    43                     44                     45
                     A                      A                      A
 Frequencies --   947.1600               962.8166               980.8093
 Red. masses --     2.0602                 3.1043                 2.6490
 Frc consts  --     1.0889                 1.6955                 1.5014
 IR Inten    --     5.1606                 2.8834                 1.1136

                    46                     47                     48
                     A                      A                      A
 Frequencies --  1017.7363              1032.6657              1045.7317
 Red. masses --     2.0932                 4.6940                 2.0075
 Frc consts  --     1.2774                 2.9493                 1.2935
 IR Inten    --     2.8527                12.0049                 6.0961

                    49                     50                     51
                     A                      A                      A
 Frequencies --  1052.2379              1075.1907              1079.9457
 Red. masses --     2.0248                 2.3848                 2.0501
 Frc consts  --     1.3209                 1.6243                 1.4087
 IR Inten    --    25.0814                 2.9184                13.9030

                    52                     53                     54
                     A                      A                      A
 Frequencies --  1084.7368              1093.6157              1101.9579
 Red. masses --     1.4858                 2.4458                 1.7661
 Frc consts  --     1.0301                 1.7235                 1.2636
 IR Inten    --     6.6984                 3.1013                 0.5665

                    55                     56                     57
                     A                      A                      A
 Frequencies --  1112.4171              1132.5707              1159.7667
 Red. masses --     1.5205                 1.2240                 1.2820
 Frc consts  --     1.1086                 0.9250                 1.0160
 IR Inten    --     0.2332                 0.2584                 1.1488

                    58                     59                     60
                     A                      A                      A
 Frequencies --  1172.3992              1182.3844              1184.5248
 Red. masses --     2.1565                 1.3815                 1.6469
 Frc consts  --     1.7464                 1.1379                 1.3615
 IR Inten    --    61.4824                13.5282                49.7233

                    61                     62                     63
                     A                      A                      A
 Frequencies --  1186.7129              1209.5928              1238.6626
 Red. masses --     1.8317                 1.4036                 1.1974
 Frc consts  --     1.5198                 1.2100                 1.0824
 IR Inten    --    21.8267                 3.4456                 8.4351

                    64                     65                     66
                     A                      A                      A
 Frequencies --  1269.2079              1277.9869              1288.7496
 Red. masses --     3.2262                 1.3335                 1.5944
 Frc consts  --     3.0620                 1.2832                 1.5602
 IR Inten    --    65.0286                 1.3138                43.4766

                    67                     68                     69
                     A                      A                      A
 Frequencies --  1290.7959              1307.2417              1316.1416
 Red. masses --     1.4275                 1.2946                 1.2830
 Frc consts  --     1.4013                 1.3034                 1.3094
 IR Inten    --     4.9519                 4.1569                 7.9070

                    70                     71                     72
                     A                      A                      A
 Frequencies --  1335.2897              1349.5563              1358.9231
 Red. masses --     1.3972                 1.2457                 1.3363
 Frc consts  --     1.4678                 1.3367                 1.4540
 IR Inten    --   119.0163                23.0563                 8.6701

                    73                     74                     75
                     A                      A                      A
 Frequencies --  1377.5590              1389.4770              1397.8288
 Red. masses --     1.2840                 1.3316                 1.3420
 Frc consts  --     1.4356                 1.5147                 1.5449
 IR Inten    --     2.0845                 2.5524                 1.7374

                    76                     77                     78
                     A                      A                      A
 Frequencies --  1404.2251              1404.8997              1419.9156
 Red. masses --     1.4421                 1.4723                 1.4080
 Frc consts  --     1.6754                 1.7121                 1.6725
 IR Inten    --    26.0165                 0.1316                 5.1481

                    79                     80                     81
                     A                      A                      A
 Frequencies --  1439.8010              1461.0290              1462.9232
 Red. masses --     1.3290                 1.4263                 1.2721
 Frc consts  --     1.6233                 1.7939                 1.6040
 IR Inten    --   179.9935               165.2312                86.4785

                    82                     83                     84
                     A                      A                      A
 Frequencies --  1470.6802              1491.0548              1505.0919
 Red. masses --     1.1685                 1.5543                 1.1425
 Frc consts  --     1.4890                 2.0360                 1.5249
 IR Inten    --    24.0665                78.8266                39.8202

                    85                     86                     87
                     A                      A                      A
 Frequencies --  1509.5817              1511.0324              1513.0920
 Red. masses --     1.0594                 1.0829                 1.0826
 Frc consts  --     1.4224                 1.4567                 1.4603
 IR Inten    --     5.9318                 4.7805                41.7799

                    88                     89                     90
                     A                      A                      A
 Frequencies --  1516.8884              1517.2431              1519.9038
 Red. masses --     1.0926                 1.0941                 1.1135
 Frc consts  --     1.4813                 1.4840                 1.5155
 IR Inten    --     1.5474                 5.3566                21.9370

                    91                     92                     93
                     A                      A                      A
 Frequencies --  1523.2765              1523.9290              1527.5855
 Red. masses --     1.0861                 1.0441                 1.0713
 Frc consts  --     1.4848                 1.4286                 1.4729
 IR Inten    --    22.5587                 8.8943                14.7508

                    94                     95                     96
                     A                      A                      A
 Frequencies --  1530.6932              1535.9030              1564.5337
 Red. masses --     1.0615                 1.1016                 1.3859
 Frc consts  --     1.4653                 1.5311                 1.9987
 IR Inten    --    19.9295                 1.4524                34.4715

                    97                     98                     99
                     A                      A                      A
 Frequencies --  1606.2771              1615.3142              1743.6502
 Red. masses --     1.9174                 1.1172                 5.0490
 Frc consts  --     2.9147                 1.7175                 9.0443
 IR Inten    --   165.3252               110.5516               220.0517

                   100                    101                    102
                     A                      A                      A
 Frequencies --  1786.9294              3013.7366              3017.1329
 Red. masses --     7.7431                 1.0659                 1.0673
 Frc consts  --    14.5673                 5.7038                 5.7243
 IR Inten    --   260.2531                 9.0034                26.4087

                   103                    104                    105
                     A                      A                      A
 Frequencies --  3030.7456              3035.4662              3042.5247
 Red. masses --     1.0724                 1.0686                 1.0654
 Frc consts  --     5.8036                 5.8011                 5.8107
 IR Inten    --     9.2054                 2.7558                28.4869

                   106                    107                    108
                     A                      A                      A
 Frequencies --  3045.2326              3061.1869              3064.2824
 Red. masses --     1.0813                 1.0389                 1.0951
 Frc consts  --     5.9082                 5.7357                 6.0586
 IR Inten    --    19.9049                 9.1399                48.8240

                   109                    110                    111
                     A                      A                      A
 Frequencies --  3067.0924              3079.0683              3089.1764
 Red. masses --     1.0380                 1.0346                 1.0942
 Frc consts  --     5.7534                 5.7794                 6.1524
 IR Inten    --    39.9835                24.9360                15.7737

                   112                    113                    114
                     A                      A                      A
 Frequencies --  3096.2489              3096.8547              3099.2560
 Red. masses --     1.0962                 1.0930                 1.0719
 Frc consts  --     6.1920                 6.1761                 6.0664
 IR Inten    --    23.5695                29.5008                15.2524

                   115                    116                    117
                     A                      A                      A
 Frequencies --  3099.4517              3110.7291              3118.7885
 Red. masses --     1.0900                 1.0814                 1.1049
 Frc consts  --     6.1697                 6.1655                 6.3322
 IR Inten    --    42.0741                43.2724                12.3779

                   118                    119                    120
                     A                      A                      A
 Frequencies --  3126.2496              3128.1188              3145.8447
 Red. masses --     1.1061                 1.0719                 1.1074
 Frc consts  --     6.3694                 6.1799                 6.4570
 IR Inten    --     9.0255               161.8564                 9.4460

                   121                    122                    123
                     A                      A                      A
 Frequencies --  3160.2145              3188.0848              3199.0763
 Red. masses --     1.1075                 1.0979                 1.1023
 Frc consts  --     6.5168                 6.5748                 6.6468
 IR Inten    --     0.4540                16.3177                 0.0643

                   124                    125                    126
                     A                      A                      A
 Frequencies --  3202.8659              3211.1087              3604.9538
 Red. masses --     1.0813                 1.0997                 1.0780
 Frc consts  --     6.5355                 6.6811                 8.2543
 IR Inten    --   325.6833                 0.4833                46.6504

 - Thermochemistry -
 -------------------
 Temperature   298.150 Kelvin.  Pressure   1.00000 Atm.
 Atom     1 has atomic number  6 and mass  12.00000

 Molecular mass:   256.20250 amu.
 Principal axes and moments of inertia in atomic units:
                           1         2         3
     Eigenvalues --  4204.305356741.066849628.28823
           X            0.99998   0.00668  -0.00167
           Y           -0.00666   0.99994   0.00821
           Z            0.00172  -0.00819   0.99996
 This molecule is an asymmetric top.
 Rotational symmetry number  1.
 Warning -- assumption of classical behavior for rotation
           may cause significant error
 Rotational temperatures (Kelvin)      0.02060     0.01285     0.00900
 Rotational constants (GHZ):           0.42926     0.26772     0.18744
 Zero-point vibrational energy    1049635.9 (Joules/Mol)
                                  250.86899 (Kcal/Mol)
 Warning -- explicit consideration of  30 degrees of freedom as
           vibrations may cause significant error
 Vibrational temperatures:     28.41    44.36    74.69    84.08    90.84
          (Kelvin)            100.68   108.72   152.91   165.18   187.16
                              205.01   240.04   250.83   285.88   312.37
                              329.34   378.72   410.79   426.07   457.27
                              490.99   588.21   610.12   626.86   639.64
                              661.06   708.49   727.53   767.43   881.16
                              900.98   920.89  1006.64  1055.17  1132.80
                             1148.82  1166.62  1228.67  1266.25  1285.97
                             1313.45  1334.86  1362.75  1385.28  1411.16
                             1464.29  1485.77  1504.57  1513.93  1546.96
                             1553.80  1560.69  1573.47  1585.47  1600.52
                             1629.51  1668.64  1686.82  1701.19  1704.26
                             1707.41  1740.33  1782.16  1826.10  1838.74
                             1854.22  1857.17  1880.83  1893.63  1921.18
                             1941.71  1955.18  1982.00  1999.14  2011.16
                             2020.36  2021.33  2042.94  2071.55  2102.09
                             2104.82  2115.98  2145.29  2165.49  2171.95
                             2174.04  2177.00  2182.46  2182.97  2186.80
                             2191.65  2192.59  2197.85  2202.32  2209.82
                             2251.01  2311.07  2324.07  2508.72  2570.99
                             4336.09  4340.98  4360.56  4367.35  4377.51
                             4381.40  4404.36  4408.81  4412.86  4430.09
                             4444.63  4454.81  4455.68  4459.13  4459.41
                             4475.64  4487.24  4497.97  4500.66  4526.16
                             4546.84  4586.94  4602.75  4608.20  4620.06
                             5186.72

 Zero-point correction=                           0.399785 (Hartree/Particle)
 Thermal correction to Energy=                    0.420118
 Thermal correction to Enthalpy=                  0.421062
 Thermal correction to Gibbs Free Energy=         0.348771
 Sum of electronic and zero-point Energies=           -825.172685
 Sum of electronic and thermal Energies=              -825.152353
 Sum of electronic and thermal Enthalpies=            -825.151408
 Sum of electronic and thermal Free Energies=         -825.223699

                     E (Thermal)             CV                S
                      KCal/Mol        Cal/Mol-Kelvin    Cal/Mol-Kelvin
 Total                  263.628             74.244            152.148
 Electronic               0.000              0.000              0.000
 Translational            0.889              2.981             42.522
 Rotational               0.889              2.981             33.967
 Vibrational            261.851             68.283             75.659
 Vibration     1          0.593              1.986              6.660
 Vibration     2          0.594              1.984              5.775
 Vibration     3          0.596              1.977              4.743
 Vibration     4          0.596              1.974              4.509
 Vibration     5          0.597              1.972              4.357
 Vibration     6          0.598              1.968              4.154
 Vibration     7          0.599              1.965              4.003
 Vibration     8          0.605              1.944              3.336
 Vibration     9          0.608              1.937              3.186
 Vibration    10          0.612              1.923              2.945
 Vibration    11          0.616              1.911              2.770
 Vibration    12          0.624              1.883              2.471
 Vibration    13          0.627              1.874              2.388
 Vibration    14          0.637              1.842              2.145
 Vibration    15          0.646              1.815              1.983
 Vibration    16          0.652              1.797              1.888
 Vibration    17          0.670              1.740              1.640
 Vibration    18          0.683              1.701              1.500
 Vibration    19          0.690              1.681              1.439
 Vibration    20          0.704              1.640              1.321
 Vibration    21          0.721              1.593              1.206
 Vibration    22          0.773              1.451              0.931
 Vibration    23          0.786              1.418              0.878
 Vibration    24          0.796              1.392              0.840
 Vibration    25          0.804              1.373              0.812
 Vibration    26          0.817              1.340              0.768
 Vibration    27          0.848              1.267              0.677
 Vibration    28          0.861              1.237              0.644
 Vibration    29          0.888              1.176              0.580
 Vibration    30          0.972              1.006              0.429

 Normal termination of Gaussian 09 at Sat Feb 17 00:22:19 2018.
