 Gaussian 09, Revision C.01,
 Gaussian 09:  AM64L-G09RevC.01 23-Sep-2011

 ----------------------------------------------------------------------
 #HF/6-31G* Geom=AllCheck Guess=Read Pop=(MK,ReadRadii) Integral=(Grid=
 UltraFine) iop(6/33=2)
 ----------------------------------------------------------------------

 Structure from the checkpoint file:  frag40-conf2.chk
 -----------------------------
 Optimization for frag40-conf2
 -----------------------------
 Charge =  1 Multiplicity = 1

                         Standard orientation:
 ---------------------------------------------------------------------
 Center     Atomic      Atomic             Coordinates (Angstroms)
 Number     Number       Type             X           Y           Z
 ---------------------------------------------------------------------
      1          6           0        3.226722    0.243484    0.010421
      2          6           0       -1.209275    1.690946   -0.306317
      3          6           0       -1.643250   -3.706403   -0.354723
      4          6           0       -2.299899   -2.602683   -1.195543
      5          6           0       -1.406799   -3.243525    1.089853
      6          6           0       -1.483896   -1.299084   -1.159143
      7          6           0       -0.592341   -1.939502    1.142409
      8          6           0       -1.257658   -0.832372    0.295822
      9          6           0        5.686989    0.064296    0.030919
     10          6           0       -2.999430    3.319586   -0.458705
     11          6           0       -2.814302    1.956530    1.593074
     12          6           0        2.004106    1.153881    0.274720
     13          6           0       -0.491679    0.511854    0.406706
     14          7           0        4.431590    0.800346    0.190310
     15          7           0       -2.275860    2.271399    0.271186
     16          7           0        0.834575    0.430229   -0.306574
     17          8           0        3.013842   -0.924436   -0.320501
     18          8           0       -0.761814    2.018362   -1.416625
     19          1           0       -2.267406   -4.606834   -0.362299
     20          1           0       -0.682941   -3.989084   -0.809559
     21          1           0       -2.415569   -2.928585   -2.235084
     22          1           0       -3.312453   -2.403794   -0.816457
     23          1           0       -2.374014   -3.081932    1.586595
     24          1           0       -0.888212   -4.019916    1.663144
     25          1           0       -0.516186   -1.483875   -1.650559
     26          1           0       -1.985857   -0.518654   -1.742726
     27          1           0       -0.485912   -1.602305    2.182647
     28          1           0        0.424924   -2.143437    0.774029
     29          1           0       -2.246654   -0.638269    0.733086
     30          1           0        5.444498   -0.964390   -0.233560
     31          1           0        6.253339    0.076898    0.966472
     32          1           0        6.288757    0.512288   -0.764922
     33          1           0       -4.052236    3.035441   -0.558757
     34          1           0       -2.554913    3.440525   -1.444287
     35          1           0       -2.938689    4.264187    0.092470
     36          1           0       -2.915237    2.881661    2.170306
     37          1           0       -2.165678    1.279555    2.147193
     38          1           0       -3.805344    1.496919    1.503231
     39          1           0        2.085678    2.141532   -0.184612
     40          1           0        1.855913    1.273096    1.351643
     41          1           0       -0.280366    0.730222    1.456081
     42          1           0        4.485224    1.780283    0.437992
     43          1           0        0.605430    0.846179   -1.238775
     44          1           0        1.179804   -0.544992   -0.427682
 ---------------------------------------------------------------------

 SCF Done:  E(RHF) =  -820.329019687     A.U. after   13 cycles

 The electronic state is 1-A.
 Alpha  occ. eigenvalues --  -20.68120 -20.67531 -15.82344 -15.73898 -15.73709
 Alpha  occ. eigenvalues --  -11.51328 -11.50665 -11.45686 -11.45388 -11.39767
 Alpha  occ. eigenvalues --  -11.38057 -11.37646 -11.37280 -11.34873 -11.34589
 Alpha  occ. eigenvalues --  -11.32613 -11.32495 -11.31727  -1.53958  -1.52965
 Alpha  occ. eigenvalues --   -1.44906  -1.38537  -1.37473  -1.25229  -1.18784
 Alpha  occ. eigenvalues --   -1.14018  -1.12013  -1.10230  -1.09839  -1.06618
 Alpha  occ. eigenvalues --   -1.04496  -0.95995  -0.95017  -0.93287  -0.92414
 Alpha  occ. eigenvalues --   -0.89259  -0.87314  -0.86158  -0.82508  -0.81538
 Alpha  occ. eigenvalues --   -0.80084  -0.78584  -0.78520  -0.76781  -0.76053
 Alpha  occ. eigenvalues --   -0.74346  -0.73052  -0.72231  -0.71251  -0.71032
 Alpha  occ. eigenvalues --   -0.70071  -0.70062  -0.68740  -0.67892  -0.66941
 Alpha  occ. eigenvalues --   -0.66690  -0.66063  -0.65662  -0.64397  -0.63394
 Alpha  occ. eigenvalues --   -0.62757  -0.60832  -0.59849  -0.58280  -0.57574
 Alpha  occ. eigenvalues --   -0.56245  -0.54755  -0.54102  -0.52912  -0.50886
 Alpha virt. eigenvalues --    0.03362   0.03898   0.07357   0.08311   0.09140
 Alpha virt. eigenvalues --    0.11168   0.11885   0.13148   0.13681   0.14995
 Alpha virt. eigenvalues --    0.15849   0.16878   0.17187   0.17728   0.18266

 Mulliken atomic charges:
              1
     1  C    0.795508
     2  C    0.839523
     3  C   -0.322954
     4  C   -0.319798
     5  C   -0.318628
     6  C   -0.341764
     7  C   -0.335659
     8  C   -0.206707
     9  C   -0.307856
    10  C   -0.315091
    11  C   -0.305728
    12  C   -0.247139
    13  C   -0.097047
    14  N   -0.790178
    15  N   -0.666913
    16  N   -0.857140
    17  O   -0.641486
    18  O   -0.674291
    19  H    0.195683
    20  H    0.168414
    21  H    0.197141
    22  H    0.168918
    23  H    0.169154
    24  H    0.196078
    25  H    0.158764
    26  H    0.202850
    27  H    0.173974
    28  H    0.174911
    29  H    0.208488
    30  H    0.245273
    31  H    0.206075
    32  H    0.207900
    33  H    0.199117
    34  H    0.252194
    35  H    0.197399
    36  H    0.215393
    37  H    0.183322
    38  H    0.211312
    39  H    0.264594
    40  H    0.255195
    41  H    0.236884
    42  H    0.408165
    43  H    0.502804
    44  H    0.513345
 Sum of Mulliken atomic charges =   1.00000

 Dipole moment (field-independent basis, Debye):
    X=              2.2674    Y=              4.7486    Z=              3.7713  Tot=              6.4740
 Quadrupole moment (field-independent basis, Debye-Ang):
   XX=            -55.6930   YY=            -92.0030   ZZ=           -106.8146
   XY=              7.1497   XZ=             -0.8988   YZ=              6.8456

 Normal termination of Gaussian 09 at Sat Feb 17 21:06:27 2018.
