 Gaussian 09, Revision C.01,
 Gaussian 09:  AM64L-G09RevC.01 23-Sep-2011

 ---------------------------------------------------------
 #B3LYP/6-31G* Integral=(Grid=UltraFine) freq Opt pop=none
 ---------------------------------------------------------

 99/9=1/99;
 -----------------------------
 Optimization for frag40-conf1
 -----------------------------
 Charge =  1 Multiplicity = 1

 SCF Done:  E(RB3LYP) =  -825.549344902     A.U. after   15 cycles
 SCF Done:  E(RB3LYP) =  -825.559759574     A.U. after   13 cycles
 SCF Done:  E(RB3LYP) =  -825.562192069     A.U. after   13 cycles
 SCF Done:  E(RB3LYP) =  -825.562472839     A.U. after   12 cycles
 SCF Done:  E(RB3LYP) =  -825.563453246     A.U. after   13 cycles
 SCF Done:  E(RB3LYP) =  -825.563231695     A.U. after   12 cycles
 SCF Done:  E(RB3LYP) =  -825.563962402     A.U. after   12 cycles
 SCF Done:  E(RB3LYP) =  -825.564270577     A.U. after   12 cycles
 SCF Done:  E(RB3LYP) =  -825.564442675     A.U. after   11 cycles
 SCF Done:  E(RB3LYP) =  -825.564558189     A.U. after   12 cycles
 SCF Done:  E(RB3LYP) =  -825.565280295     A.U. after   11 cycles
 SCF Done:  E(RB3LYP) =  -825.565262034     A.U. after   12 cycles
 SCF Done:  E(RB3LYP) =  -825.565319638     A.U. after   10 cycles
 SCF Done:  E(RB3LYP) =  -825.565330754     A.U. after   10 cycles
 SCF Done:  E(RB3LYP) =  -825.565336515     A.U. after    9 cycles
 SCF Done:  E(RB3LYP) =  -825.565340226     A.U. after    9 cycles
 SCF Done:  E(RB3LYP) =  -825.565342162     A.U. after    9 cycles
 SCF Done:  E(RB3LYP) =  -825.565343489     A.U. after    8 cycles
 SCF Done:  E(RB3LYP) =  -825.565343654     A.U. after    7 cycles
 Optimization completed.
    -- Stationary point found.
 Normal termination of Gaussian 09 at Fri Feb 16 23:59:42 2018.

 --------------------------------------------------------------------
 #N Geom=AllCheck Guess=TCheck SCRF=Check GenChk RB3LYP/6-31G(d) Freq
 --------------------------------------------------------------------

 Structure from the checkpoint file:  frag40-conf1.chk
 -----------------------------
 Optimization for frag40-conf1
 -----------------------------
 Charge =  1 Multiplicity = 1

                         Standard orientation:
 ---------------------------------------------------------------------
 Center     Atomic      Atomic             Coordinates (Angstroms)
 Number     Number       Type             X           Y           Z
 ---------------------------------------------------------------------
      1          6           0        3.475173   -0.059487    0.115927
      2          6           0       -0.929321    1.541061   -0.465101
      3          6           0       -3.184849   -2.836728   -0.224976
      4          6           0       -2.933592   -2.285159    1.184822
      5          6           0       -1.891600   -2.858025   -1.050996
      6          6           0       -2.267676   -0.899669    1.141937
      7          6           0       -1.228367   -1.470846   -1.101405
      8          6           0       -0.959570   -0.934301    0.321289
      9          6           0        5.913530   -0.403655    0.256781
     10          6           0       -2.488941    3.369445   -0.752419
     11          6           0       -2.119105    2.508484    1.527154
     12          6           0        2.084994   -0.735278    0.019550
     13          6           0       -0.227297    0.433070    0.367312
     14          7           0        4.534991   -0.877418    0.116894
     15          7           0       -1.813339    2.384973    0.103095
     16          7           0        1.134260    0.365435   -0.306102
     17          8           0        3.510073    1.168759    0.210800
     18          8           0       -0.628118    1.569201   -1.666977
     19          1           0       -3.610850   -3.844392   -0.165077
     20          1           0       -3.931655   -2.211415   -0.734481
     21          1           0       -3.872970   -2.218136    1.744925
     22          1           0       -2.287959   -2.978979    1.742127
     23          1           0       -1.190018   -3.583311   -0.613193
     24          1           0       -2.094093   -3.198979   -2.072364
     25          1           0       -2.962494   -0.179836    0.688901
     26          1           0       -2.065245   -0.554356    2.164162
     27          1           0       -0.298699   -1.533237   -1.684471
     28          1           0       -1.876369   -0.771400   -1.642479
     29          1           0       -0.297085   -1.650737    0.831219
     30          1           0        6.500699   -0.691672   -0.619637
     31          1           0        6.369533   -0.827360    1.156122
     32          1           0        5.891434    0.682576    0.337696
     33          1           0       -3.569060    3.313761   -0.584193
     34          1           0       -2.262883    3.154032   -1.794443
     35          1           0       -2.143375    4.379070   -0.503707
     36          1           0       -1.885212    3.525201    1.862216
     37          1           0       -1.548862    1.805592    2.130408
     38          1           0       -3.184693    2.323882    1.699956
     39          1           0        1.821201   -1.165478    0.988940
     40          1           0        2.031296   -1.517563   -0.739558
     41          1           0       -0.032471    0.717219    1.403222
     42          1           0        4.384504   -1.873233    0.015704
     43          1           0        1.696276    1.220924   -0.082984
     44          1           0        0.911748    0.449731   -1.316073
 ---------------------------------------------------------------------

 SCF Done:  E(RB3LYP) =  -825.565343654     A.U. after    1 cycles

 Isotropic polarizability for W=    0.000000      160.74 Bohr**3.
 End of Minotr Frequency-dependent properties file   721 does not exist.

                     1                      2                      3
                     A                      A                      A
 Frequencies --    24.2893                42.7430                54.9098
 Red. masses --     3.6700                 3.2543                 2.9121
 Frc consts  --     0.0013                 0.0035                 0.0052
 IR Inten    --     2.7550                 3.3558                 1.3522

                     4                      5                      6
                     A                      A                      A
 Frequencies --    56.9454                62.2287                67.8776
 Red. masses --     1.8899                 2.7915                 1.7304
 Frc consts  --     0.0036                 0.0064                 0.0047
 IR Inten    --     5.5586                 0.2619                 3.8413

                     7                      8                      9
                     A                      A                      A
 Frequencies --    84.1062               104.2585               115.7812
 Red. masses --     1.5593                 1.6444                 1.7289
 Frc consts  --     0.0065                 0.0105                 0.0137
 IR Inten    --     0.8173                 1.1704                 1.4173

                    10                     11                     12
                     A                      A                      A
 Frequencies --   131.9177               143.4633               163.4350
 Red. masses --     2.4051                 2.9178                 3.5482
 Frc consts  --     0.0247                 0.0354                 0.0558
 IR Inten    --     3.0794                 1.7965                 3.0846

                    13                     14                     15
                     A                      A                      A
 Frequencies --   184.8639               193.9675               227.2933
 Red. masses --     2.6815                 3.3510                 2.7105
 Frc consts  --     0.0540                 0.0743                 0.0825
 IR Inten    --     4.3284                 3.1842                 1.2223

                    16                     17                     18
                     A                      A                      A
 Frequencies --   237.7100               253.6666               266.5047
 Red. masses --     3.3854                 2.6205                 3.0059
 Frc consts  --     0.1127                 0.0993                 0.1258
 IR Inten    --     0.5098                 1.7582                 8.8751

                    19                     20                     21
                     A                      A                      A
 Frequencies --   278.6191               328.2416               346.5929
 Red. masses --     2.6615                 2.1261                 2.7817
 Frc consts  --     0.1217                 0.1350                 0.1969
 IR Inten    --     4.8749                 6.9438                17.0853

                    22                     23                     24
                     A                      A                      A
 Frequencies --   405.4917               415.2141               439.1634
 Red. masses --     3.0293                 3.6570                 3.1066
 Frc consts  --     0.2935                 0.3715                 0.3530
 IR Inten    --    22.9444                60.5627                10.1884

                    25                     26                     27
                     A                      A                      A
 Frequencies --   447.7613               468.3621               481.2393
 Red. masses --     3.0768                 2.3456                 2.4187
 Frc consts  --     0.3634                 0.3032                 0.3300
 IR Inten    --     5.7392                 4.2617                30.0810

                    28                     29                     30
                     A                      A                      A
 Frequencies --   512.4883               534.3649               590.5171
 Red. masses --     1.7623                 2.5742                 2.6190
 Frc consts  --     0.2727                 0.4331                 0.5381
 IR Inten    --    48.3590                45.1748                21.4934

                    31                     32                     33
                     A                      A                      A
 Frequencies --   628.1361               632.6687               704.6346
 Red. masses --     1.9847                 4.2335                 3.5717
 Frc consts  --     0.4614                 0.9984                 1.0449
 IR Inten    --    14.6363                 8.0685                 0.7661

                    34                     35                     36
                     A                      A                      A
 Frequencies --   744.2820               771.1159               802.6826
 Red. masses --     4.1814                 3.8410                 1.4828
 Frc consts  --     1.3647                 1.3456                 0.5629
 IR Inten    --    12.2143                 5.3010                 0.4771

                    37                     38                     39
                     A                      A                      A
 Frequencies --   824.8053               850.8488               884.5633
 Red. masses --     2.2913                 2.6092                 2.4852
 Frc consts  --     0.9184                 1.1129                 1.1457
 IR Inten    --     1.1212                 2.5146                11.2078

                    40                     41                     42
                     A                      A                      A
 Frequencies --   899.6703               910.9424               925.5960
 Red. masses --     2.3010                 1.9153                 1.5295
 Frc consts  --     1.0973                 0.9364                 0.7720
 IR Inten    --     9.2824                 8.4680                 0.2468

                    43                     44                     45
                     A                      A                      A
 Frequencies --   933.7321               947.4406               969.1312
 Red. masses --     2.2465                 1.9899                 2.7481
 Frc consts  --     1.1540                 1.0524                 1.5207
 IR Inten    --    16.6200                 3.8279                 2.8645

                    46                     47                     48
                     A                      A                      A
 Frequencies --  1007.8778              1036.7731              1043.6288
 Red. masses --     2.4341                 4.5532                 2.0968
 Frc consts  --     1.4568                 2.8836                 1.3456
 IR Inten    --    16.9872                 0.6462                 2.3725

                    49                     50                     51
                     A                      A                      A
 Frequencies --  1047.0281              1064.1674              1078.4889
 Red. masses --     2.0139                 2.2639                 2.0339
 Frc consts  --     1.3008                 1.5105                 1.3938
 IR Inten    --     1.5625                14.2230                 4.1069

                    52                     53                     54
                     A                      A                      A
 Frequencies --  1083.8672              1093.4183              1103.7425
 Red. masses --     1.6340                 1.6763                 1.5897
 Frc consts  --     1.1310                 1.1808                 1.1410
 IR Inten    --     7.3032                 0.2518                 0.7906

                    55                     56                     57
                     A                      A                      A
 Frequencies --  1125.2529              1132.7757              1159.6549
 Red. masses --     1.7462                 1.2274                 1.2827
 Frc consts  --     1.3027                 0.9280                 1.0163
 IR Inten    --     3.5998                 0.4884                 1.9113

                    58                     59                     60
                     A                      A                      A
 Frequencies --  1167.6515              1174.2578              1183.7324
 Red. masses --     2.0976                 1.7474                 1.4518
 Frc consts  --     1.6850                 1.4196                 1.1986
 IR Inten    --     2.5466                66.6578                33.4038

                    61                     62                     63
                     A                      A                      A
 Frequencies --  1184.6228              1206.2276              1240.0620
 Red. masses --     1.5835                 1.2508                 1.4967
 Frc consts  --     1.3093                 1.0722                 1.3560
 IR Inten    --    27.5018                 5.8545                11.2901

                    64                     65                     66
                     A                      A                      A
 Frequencies --  1260.6089              1269.2072              1283.5229
 Red. masses --     1.5038                 3.1094                 1.6480
 Frc consts  --     1.4080                 2.9512                 1.5997
 IR Inten    --     2.4973                52.7968                32.5228

                    67                     68                     69
                     A                      A                      A
 Frequencies --  1303.7471              1307.6025              1314.5680
 Red. masses --     1.3217                 1.2879                 1.2839
 Frc consts  --     1.3237                 1.2974                 1.3072
 IR Inten    --    15.2669                20.7533                13.2812

                    70                     71                     72
                     A                      A                      A
 Frequencies --  1331.7513              1348.5008              1358.1053
 Red. masses --     1.2386                 1.3519                 1.3128
 Frc consts  --     1.2943                 1.4485                 1.4266
 IR Inten    --    14.8262                74.7129                71.7225

                    73                     74                     75
                     A                      A                      A
 Frequencies --  1367.6942              1387.3408              1391.9066
 Red. masses --     1.2645                 1.3800                 1.3534
 Frc consts  --     1.3937                 1.5650                 1.5449
 IR Inten    --     0.4311                 1.1587                 5.2086

                    76                     77                     78
                     A                      A                      A
 Frequencies --  1405.2877              1406.2244              1420.5660
 Red. masses --     1.4433                 1.4588                 1.3380
 Frc consts  --     1.6794                 1.6996                 1.5909
 IR Inten    --    10.1596                17.7792                54.2019

                    79                     80                     81
                     A                      A                      A
 Frequencies --  1424.2946              1457.3548              1461.7208
 Red. masses --     1.4778                 1.3112                 1.1655
 Frc consts  --     1.7664                 1.6408                 1.4672
 IR Inten    --    85.3592               290.1855                27.5062

                    82                     83                     84
                     A                      A                      A
 Frequencies --  1472.5524              1478.6114              1501.0915
 Red. masses --     1.1648                 1.9012                 1.1635
 Frc consts  --     1.4881                 2.4490                 1.5447
 IR Inten    --    24.0431                14.0143                13.4171

                    85                     86                     87
                     A                      A                      A
 Frequencies --  1505.5307              1509.2937              1511.5033
 Red. masses --     1.0770                 1.0805                 1.0847
 Frc consts  --     1.4383                 1.4502                 1.4601
 IR Inten    --     6.3095                16.2581                52.3541

                    88                     89                     90
                     A                      A                      A
 Frequencies --  1516.1467              1517.4299              1520.1569
 Red. masses --     1.0912                 1.0902                 1.1145
 Frc consts  --     1.4779                 1.4790                 1.5174
 IR Inten    --     3.8395                 4.6983                12.4056

                    91                     92                     93
                     A                      A                      A
 Frequencies --  1523.2052              1523.7536              1525.1336
 Red. masses --     1.0836                 1.0419                 1.0809
 Frc consts  --     1.4813                 1.4252                 1.4813
 IR Inten    --    16.2435                11.9876                14.4851

                    94                     95                     96
                     A                      A                      A
 Frequencies --  1531.3448              1536.3346              1564.6090
 Red. masses --     1.0589                 1.0959                 1.3751
 Frc consts  --     1.4631                 1.5241                 1.9833
 IR Inten    --    13.1109                 1.9664                41.0413

                    97                     98                     99
                     A                      A                      A
 Frequencies --  1606.3249              1686.8814              1733.1359
 Red. masses --     1.9338                 1.1002                 5.8973
 Frc consts  --     2.9399                 1.8446                10.4368
 IR Inten    --   165.4263                87.0875               278.9369

                   100                    101                    102
                     A                      A                      A
 Frequencies --  1792.2755              3007.8914              3024.7392
 Red. masses --     6.9470                 1.0818                 1.0702
 Frc consts  --    13.1479                 5.7669                 5.7691
 IR Inten    --   214.6750                16.5673                23.8925

                   103                    104                    105
                     A                      A                      A
 Frequencies --  3032.0489              3032.8867              3036.7832
 Red. masses --     1.0699                 1.0679                 1.0608
 Frc consts  --     5.7950                 5.7876                 5.7640
 IR Inten    --    22.2500                40.3453                19.2490

                   106                    107                    108
                     A                      A                      A
 Frequencies --  3042.1690              3063.0366              3067.7447
 Red. masses --     1.0641                 1.0383                 1.0386
 Frc consts  --     5.8025                 5.7397                 5.7590
 IR Inten    --    37.3994                10.9488                37.9465

                   109                    110                    111
                     A                      A                      A
 Frequencies --  3079.0661              3079.6521              3088.6814
 Red. masses --     1.1020                 1.0346                 1.0943
 Frc consts  --     6.1556                 5.7815                 6.1508
 IR Inten    --    29.1641                26.0137                18.4767

                   112                    113                    114
                     A                      A                      A
 Frequencies --  3095.2462              3096.6516              3100.3044
 Red. masses --     1.0958                 1.0944                 1.1004
 Frc consts  --     6.1853                 6.1834                 6.2319
 IR Inten    --    25.5037                33.0982                58.2104

                   115                    116                    117
                     A                      A                      A
 Frequencies --  3105.5648              3117.9040              3119.6320
 Red. masses --     1.0620                 1.0702                 1.1045
 Frc consts  --     6.0349                 6.1300                 6.3329
 IR Inten    --    94.2698               236.2969                45.0654

                   118                    119                    120
                     A                      A                      A
 Frequencies --  3127.1673              3127.3378              3146.8692
 Red. masses --     1.0955                 1.0970                 1.1074
 Frc consts  --     6.3119                 6.3214                 6.4612
 IR Inten    --    23.5563                 3.9858                 8.9600

                   121                    122                    123
                     A                      A                      A
 Frequencies --  3167.9587              3199.5241              3203.1463
 Red. masses --     1.1083                 1.1025                 1.0961
 Frc consts  --     6.5534                 6.6495                 6.6259
 IR Inten    --     0.8670                 0.0328                14.5277

                   124                    125                    126
                     A                      A                      A
 Frequencies --  3211.9513              3274.0719              3604.7875
 Red. masses --     1.0996                 1.0759                 1.0780
 Frc consts  --     6.6840                 6.7953                 8.2535
 IR Inten    --     0.5284               194.8385                43.2664

 - Thermochemistry -
 -------------------
 Temperature   298.150 Kelvin.  Pressure   1.00000 Atm.
 Atom     1 has atomic number  6 and mass  12.00000

 Molecular mass:   256.20250 amu.
 Principal axes and moments of inertia in atomic units:
                           1         2         3
     Eigenvalues --  3703.560307582.135499903.22611
           X            0.99996  -0.00777  -0.00360
           Y            0.00781   0.99990   0.01160
           Z            0.00351  -0.01162   0.99993
 This molecule is an asymmetric top.
 Rotational symmetry number  1.
 Warning -- assumption of classical behavior for rotation
           may cause significant error
 Rotational temperatures (Kelvin)      0.02339     0.01142     0.00875
 Rotational constants (GHZ):           0.48730     0.23803     0.18224
 Zero-point vibrational energy    1049936.2 (Joules/Mol)
                                  250.94078 (Kcal/Mol)
 Warning -- explicit consideration of  30 degrees of freedom as
           vibrations may cause significant error
 Vibrational temperatures:     34.95    61.50    79.00    81.93    89.53
          (Kelvin)             97.66   121.01   150.00   166.58   189.80
                              206.41   235.15   265.98   279.08   327.02
                              342.01   364.97   383.44   400.87   472.27
                              498.67   583.41   597.40   631.86   644.23
                              673.87   692.40   737.36   768.83   849.62
                              903.75   910.27  1013.81  1070.85  1109.46
                             1154.88  1186.71  1224.18  1272.69  1294.42
                             1310.64  1331.72  1343.43  1363.15  1394.36
                             1450.11  1491.68  1501.55  1506.44  1531.10
                             1551.70  1559.44  1573.18  1588.04  1618.99
                             1629.81  1668.48  1679.99  1689.49  1703.12
                             1704.41  1735.49  1784.17  1813.73  1826.10
                             1846.70  1875.80  1881.35  1891.37  1916.09
                             1940.19  1954.01  1967.80  1996.07  2002.64
                             2021.89  2023.24  2043.88  2049.24  2096.81
                             2103.09  2118.67  2127.39  2159.73  2166.12
                             2171.53  2174.71  2181.39  2183.24  2187.16
                             2191.55  2192.34  2194.32  2203.26  2210.44
                             2251.12  2311.14  2427.04  2493.59  2578.68
                             4327.68  4351.92  4362.44  4363.64  4369.25
                             4377.00  4407.02  4413.79  4430.08  4430.93
                             4443.92  4453.36  4455.39  4460.64  4468.21
                             4485.96  4488.45  4499.29  4499.54  4527.64
                             4557.98  4603.40  4608.61  4621.28  4710.65
                             5186.48

 Zero-point correction=                           0.399900 (Hartree/Particle)
 Thermal correction to Energy=                    0.420211
 Thermal correction to Enthalpy=                  0.421155
 Thermal correction to Gibbs Free Energy=         0.349408
 Sum of electronic and zero-point Energies=           -825.165444
 Sum of electronic and thermal Energies=              -825.145132
 Sum of electronic and thermal Enthalpies=            -825.144188
 Sum of electronic and thermal Free Energies=         -825.215935

                     E (Thermal)             CV                S
                      KCal/Mol        Cal/Mol-Kelvin    Cal/Mol-Kelvin
 Total                  263.686             74.366            151.005
 Electronic               0.000              0.000              0.000
 Translational            0.889              2.981             42.522
 Rotational               0.889              2.981             33.986
 Vibrational            261.909             68.405             74.497
 Vibration     1          0.593              1.985              6.248
 Vibration     2          0.595              1.980              5.128
 Vibration     3          0.596              1.976              4.632
 Vibration     4          0.596              1.975              4.560
 Vibration     5          0.597              1.972              4.385
 Vibration     6          0.598              1.970              4.214
 Vibration     7          0.601              1.960              3.793
 Vibration     8          0.605              1.946              3.373
 Vibration     9          0.608              1.936              3.170
 Vibration    10          0.612              1.921              2.918
 Vibration    11          0.616              1.910              2.757
 Vibration    12          0.623              1.887              2.510
 Vibration    13          0.631              1.860              2.279
 Vibration    14          0.635              1.848              2.190
 Vibration    15          0.651              1.799              1.900
 Vibration    16          0.656              1.783              1.820
 Vibration    17          0.665              1.757              1.705
 Vibration    18          0.672              1.735              1.619
 Vibration    19          0.679              1.713              1.542
 Vibration    20          0.711              1.619              1.269
 Vibration    21          0.725              1.582              1.182
 Vibration    22          0.770              1.458              0.943
 Vibration    23          0.779              1.437              0.908
 Vibration    24          0.799              1.385              0.829
 Vibration    25          0.807              1.366              0.803
 Vibration    26          0.826              1.320              0.742
 Vibration    27          0.838              1.292              0.707
 Vibration    28          0.868              1.222              0.628
 Vibration    29          0.889              1.174              0.578
 Vibration    30          0.948              1.052              0.466

 Normal termination of Gaussian 09 at Sat Feb 17 01:20:39 2018.
