 Gaussian 09, Revision C.01,
 Gaussian 09:  AM64L-G09RevC.01 23-Sep-2011

 ----------------------------------------------------------------------
 #HF/6-31G* Geom=AllCheck Guess=Read Pop=(MK,ReadRadii) Integral=(Grid=
 UltraFine) iop(6/33=2)
 ----------------------------------------------------------------------

 Structure from the checkpoint file:  frag40-conf1.chk
 -----------------------------
 Optimization for frag40-conf1
 -----------------------------
 Charge =  1 Multiplicity = 1

                         Standard orientation:
 ---------------------------------------------------------------------
 Center     Atomic      Atomic             Coordinates (Angstroms)
 Number     Number       Type             X           Y           Z
 ---------------------------------------------------------------------
      1          6           0        3.475173   -0.059487    0.115927
      2          6           0       -0.929321    1.541061   -0.465101
      3          6           0       -3.184849   -2.836728   -0.224976
      4          6           0       -2.933592   -2.285159    1.184822
      5          6           0       -1.891600   -2.858025   -1.050996
      6          6           0       -2.267676   -0.899669    1.141937
      7          6           0       -1.228367   -1.470846   -1.101405
      8          6           0       -0.959570   -0.934301    0.321289
      9          6           0        5.913530   -0.403655    0.256781
     10          6           0       -2.488941    3.369445   -0.752419
     11          6           0       -2.119105    2.508484    1.527154
     12          6           0        2.084994   -0.735278    0.019550
     13          6           0       -0.227297    0.433070    0.367312
     14          7           0        4.534991   -0.877418    0.116894
     15          7           0       -1.813339    2.384973    0.103095
     16          7           0        1.134260    0.365435   -0.306102
     17          8           0        3.510073    1.168759    0.210800
     18          8           0       -0.628118    1.569201   -1.666977
     19          1           0       -3.610850   -3.844392   -0.165077
     20          1           0       -3.931655   -2.211415   -0.734481
     21          1           0       -3.872970   -2.218136    1.744925
     22          1           0       -2.287959   -2.978979    1.742127
     23          1           0       -1.190018   -3.583311   -0.613193
     24          1           0       -2.094093   -3.198979   -2.072364
     25          1           0       -2.962494   -0.179836    0.688901
     26          1           0       -2.065245   -0.554356    2.164162
     27          1           0       -0.298699   -1.533237   -1.684471
     28          1           0       -1.876369   -0.771400   -1.642479
     29          1           0       -0.297085   -1.650737    0.831219
     30          1           0        6.500699   -0.691672   -0.619637
     31          1           0        6.369533   -0.827360    1.156122
     32          1           0        5.891434    0.682576    0.337696
     33          1           0       -3.569060    3.313761   -0.584193
     34          1           0       -2.262883    3.154032   -1.794443
     35          1           0       -2.143375    4.379070   -0.503707
     36          1           0       -1.885212    3.525201    1.862216
     37          1           0       -1.548862    1.805592    2.130408
     38          1           0       -3.184693    2.323882    1.699956
     39          1           0        1.821201   -1.165478    0.988940
     40          1           0        2.031296   -1.517563   -0.739558
     41          1           0       -0.032471    0.717219    1.403222
     42          1           0        4.384504   -1.873233    0.015704
     43          1           0        1.696276    1.220924   -0.082984
     44          1           0        0.911748    0.449731   -1.316073
 ---------------------------------------------------------------------

 SCF Done:  E(RHF) =  -820.321291710     A.U. after   13 cycles

 The electronic state is 1-A.
 Alpha  occ. eigenvalues --  -20.68407 -20.66701 -15.82945 -15.73976 -15.73461
 Alpha  occ. eigenvalues --  -11.51573 -11.50256 -11.46044 -11.45619 -11.39202
 Alpha  occ. eigenvalues --  -11.38444 -11.37824 -11.36791 -11.35003 -11.34772
 Alpha  occ. eigenvalues --  -11.32943 -11.32914 -11.32063  -1.54143  -1.52486
 Alpha  occ. eigenvalues --   -1.45035  -1.37890  -1.37750  -1.25365  -1.19136
 Alpha  occ. eigenvalues --   -1.14763  -1.12268  -1.09744  -1.09394  -1.06807
 Alpha  occ. eigenvalues --   -1.04124  -0.95855  -0.94813  -0.93525  -0.92457
 Alpha  occ. eigenvalues --   -0.90661  -0.86896  -0.85821  -0.82808  -0.81580
 Alpha  occ. eigenvalues --   -0.80555  -0.78452  -0.78233  -0.76334  -0.76103
 Alpha  occ. eigenvalues --   -0.74803  -0.73812  -0.72444  -0.71532  -0.71101
 Alpha  occ. eigenvalues --   -0.70635  -0.69688  -0.67837  -0.67402  -0.66856
 Alpha  occ. eigenvalues --   -0.66355  -0.66157  -0.65279  -0.64510  -0.63835
 Alpha  occ. eigenvalues --   -0.62916  -0.61326  -0.60098  -0.58419  -0.56864
 Alpha  occ. eigenvalues --   -0.56102  -0.55100  -0.54694  -0.53181  -0.50225
 Alpha virt. eigenvalues --    0.03207   0.03689   0.05891   0.08513   0.09246
 Alpha virt. eigenvalues --    0.11085   0.11767   0.13163   0.13735   0.14660
 Alpha virt. eigenvalues --    0.15569   0.16307   0.17289   0.18154   0.18516

 Mulliken atomic charges:
              1
     1  C    0.795788
     2  C    0.829019
     3  C   -0.320723
     4  C   -0.320063
     5  C   -0.320782
     6  C   -0.329138
     7  C   -0.329606
     8  C   -0.187571
     9  C   -0.308425
    10  C   -0.315351
    11  C   -0.299622
    12  C   -0.243105
    13  C   -0.091906
    14  N   -0.790202
    15  N   -0.672287
    16  N   -0.845166
    17  O   -0.639092
    18  O   -0.662038
    19  H    0.194694
    20  H    0.170363
    21  H    0.195411
    22  H    0.166030
    23  H    0.157416
    24  H    0.197287
    25  H    0.181312
    26  H    0.173423
    27  H    0.147372
    28  H    0.206462
    29  H    0.178721
    30  H    0.208512
    31  H    0.206780
    32  H    0.246595
    33  H    0.196312
    34  H    0.251935
    35  H    0.198812
    36  H    0.213316
    37  H    0.179709
    38  H    0.209639
    39  H    0.262623
    40  H    0.257449
    41  H    0.246165
    42  H    0.408126
    43  H    0.500327
    44  H    0.495480
 Sum of Mulliken atomic charges =   1.00000

 Dipole moment (field-independent basis, Debye):
    X=              3.1410    Y=             -2.1946    Z=              2.7087  Tot=              4.6925
 Quadrupole moment (field-independent basis, Debye-Ang):
   XX=            -59.8820   YY=            -90.8248   ZZ=           -108.3329
   XY=            -21.6262   XZ=             -3.5246   YZ=              5.0387

 Normal termination of Gaussian 09 at Sat Feb 17 21:06:17 2018.
