 Gaussian 09, Revision C.01,
 Gaussian 09:  AM64L-G09RevC.01 23-Sep-2011

 ---------------------------------------------------------
 #B3LYP/6-31G* Integral=(Grid=UltraFine) freq Opt pop=none
 ---------------------------------------------------------

 99/9=1/99;
 -----------------------------
 Optimization for frag49-conf1
 -----------------------------
 Charge =  0 Multiplicity = 1

 SCF Done:  E(RB3LYP) =  -456.528494257     A.U. after   14 cycles
 SCF Done:  E(RB3LYP) =  -456.530885407     A.U. after   12 cycles
 SCF Done:  E(RB3LYP) =  -456.531452387     A.U. after   12 cycles
 SCF Done:  E(RB3LYP) =  -456.532212130     A.U. after   13 cycles
 SCF Done:  E(RB3LYP) =  -456.532850055     A.U. after   12 cycles
 SCF Done:  E(RB3LYP) =  -456.533044731     A.U. after   12 cycles
 SCF Done:  E(RB3LYP) =  -456.533492104     A.U. after   12 cycles
 SCF Done:  E(RB3LYP) =  -456.533900617     A.U. after   12 cycles
 SCF Done:  E(RB3LYP) =  -456.533966907     A.U. after   15 cycles
 SCF Done:  E(RB3LYP) =  -456.534957164     A.U. after   13 cycles
 SCF Done:  E(RB3LYP) =  -456.536157904     A.U. after   11 cycles
 SCF Done:  E(RB3LYP) =  -456.536164427     A.U. after   10 cycles
 SCF Done:  E(RB3LYP) =  -456.536167005     A.U. after    9 cycles
 SCF Done:  E(RB3LYP) =  -456.536168989     A.U. after    9 cycles
 SCF Done:  E(RB3LYP) =  -456.536169671     A.U. after    8 cycles
 SCF Done:  E(RB3LYP) =  -456.536170121     A.U. after    9 cycles
 SCF Done:  E(RB3LYP) =  -456.536170546     A.U. after    8 cycles
 SCF Done:  E(RB3LYP) =  -456.536172041     A.U. after    9 cycles
 SCF Done:  E(RB3LYP) =  -456.536172648     A.U. after    8 cycles
 Optimization completed.
    -- Stationary point found.
 Normal termination of Gaussian 09 at Fri Feb 16 21:30:30 2018.

 --------------------------------------------------------------------
 #N Geom=AllCheck Guess=TCheck SCRF=Check GenChk RB3LYP/6-31G(d) Freq
 --------------------------------------------------------------------

 Structure from the checkpoint file:  frag49-conf1.chk
 -----------------------------
 Optimization for frag49-conf1
 -----------------------------
 Charge =  0 Multiplicity = 1

                         Standard orientation:
 ---------------------------------------------------------------------
 Center     Atomic      Atomic             Coordinates (Angstroms)
 Number     Number       Type             X           Y           Z
 ---------------------------------------------------------------------
      1          6           0       -2.339339    0.175668    0.000006
      2          6           0        1.358801   -0.155237    0.000012
      3          6           0       -3.406828   -0.908317   -0.000058
      4          6           0        3.825278    0.019041   -0.000009
      5          6           0        0.057532    0.652780    0.000027
      6          7           0        2.491675    0.596651   -0.000112
      7          7           0       -1.051870   -0.265869   -0.000020
      8          8           0       -2.616182    1.371426    0.000058
      9          8           0        1.354852   -1.383174    0.000088
     10          1           0       -4.042608   -0.778197    0.881217
     11          1           0       -4.042164   -0.778522   -0.881704
     12          1           0       -3.000866   -1.924583    0.000226
     13          1           0        3.711569   -1.065484   -0.000422
     14          1           0        4.386065    0.320926    0.892051
     15          1           0        4.386443    0.321613   -0.891589
     16          1           0        0.020538    1.311619    0.879212
     17          1           0        0.020589    1.311682   -0.879111
     18          1           0        2.400405    1.603217    0.000024
     19          1           0       -0.800633   -1.247364   -0.000020
 ---------------------------------------------------------------------

 SCF Done:  E(RB3LYP) =  -456.536172648     A.U. after    1 cycles

 Isotropic polarizability for W=    0.000000       71.35 Bohr**3.
 End of Minotr Frequency-dependent properties file   721 does not exist.

                     1                      2                      3
                     A                      A                      A
 Frequencies --    21.6594                42.4214                56.3492
 Red. masses --     3.5280                 3.8738                 1.1542
 Frc consts  --     0.0010                 0.0041                 0.0022
 IR Inten    --     0.1293                 6.8027                 3.2887

                     4                      5                      6
                     A                      A                      A
 Frequencies --    71.9965               111.9941               140.7738
 Red. masses --     1.1459                 4.0236                 3.1016
 Frc consts  --     0.0035                 0.0297                 0.0362
 IR Inten    --     0.0949                14.4387                 4.2257

                     7                      8                      9
                     A                      A                      A
 Frequencies --   173.3638               249.1869               287.7605
 Red. masses --     2.3829                 4.6750                 5.2678
 Frc consts  --     0.0422                 0.1710                 0.2570
 IR Inten    --    18.4163                 5.9761                 2.6011

                    10                     11                     12
                     A                      A                      A
 Frequencies --   376.0863               449.6564               490.8796
 Red. masses --     4.1710                 1.3159                 3.3670
 Frc consts  --     0.3476                 0.1568                 0.4780
 IR Inten    --    23.8711                66.8485                10.4785

                    13                     14                     15
                     A                      A                      A
 Frequencies --   510.6491               608.9081               622.3125
 Red. masses --     1.3055                 2.0487                 4.9744
 Frc consts  --     0.2006                 0.4475                 1.1350
 IR Inten    --   109.7738                 0.0568                 9.5883

                    16                     17                     18
                     A                      A                      A
 Frequencies --   648.6904               700.7257               895.6056
 Red. masses --     1.8565                 3.8875                 3.3897
 Frc consts  --     0.4603                 1.1246                 1.6019
 IR Inten    --     4.2552                 0.6658                 3.6022

                    19                     20                     21
                     A                      A                      A
 Frequencies --   993.1597              1009.4050              1018.0897
 Red. masses --     2.8069                 2.0030                 2.0552
 Frc consts  --     1.6313                 1.2024                 1.2551
 IR Inten    --    17.1191                10.3291                 0.7845

                    22                     23                     24
                     A                      A                      A
 Frequencies --  1067.6752              1070.6405              1162.6930
 Red. masses --     3.7945                 1.7057                 1.2730
 Frc consts  --     2.5485                 1.1520                 1.0140
 IR Inten    --     5.3292                 9.6150                 0.7812

                    25                     26                     27
                     A                      A                      A
 Frequencies --  1176.4546              1189.1362              1246.4025
 Red. masses --     1.9507                 3.0506                 1.0871
 Frc consts  --     1.5907                 2.5416                 0.9950
 IR Inten    --    32.1487                21.7310                 0.0330

                    28                     29                     30
                     A                      A                      A
 Frequencies --  1252.2439              1278.7396              1386.5518
 Red. masses --     1.6422                 1.7542                 1.6813
 Frc consts  --     1.5173                 1.6900                 1.9044
 IR Inten    --   107.1671                18.9782                44.9216

                    31                     32                     33
                     A                      A                      A
 Frequencies --  1427.2394              1463.1365              1502.3855
 Red. masses --     1.2797                 1.1743                 1.0458
 Frc consts  --     1.5358                 1.4812                 1.3908
 IR Inten    --    19.9000                20.1312                 5.3807

                    34                     35                     36
                     A                      A                      A
 Frequencies --  1510.7067              1522.9202              1528.0458
 Red. masses --     1.1279                 1.1699                 1.0910
 Frc consts  --     1.5167                 1.5986                 1.5009
 IR Inten    --   100.6497               108.9213                11.2915

                    37                     38                     39
                     A                      A                      A
 Frequencies --  1529.2820              1549.4425              1595.9316
 Red. masses --     1.0443                 2.1640                 1.8177
 Frc consts  --     1.4390                 3.0609                 2.7277
 IR Inten    --     7.3204               348.0666               127.3976

                    40                     41                     42
                     A                      A                      A
 Frequencies --  1771.4342              1788.8681              3030.2441
 Red. masses --    10.4041                 8.2484                 1.0582
 Frc consts  --    19.2356                15.5517                 5.7248
 IR Inten    --   369.3190                86.7392                31.8597

                    43                     44                     45
                     A                      A                      A
 Frequencies --  3051.7507              3052.8695              3064.8127
 Red. masses --     1.0368                 1.1040                 1.0352
 Frc consts  --     5.6894                 6.0623                 5.7293
 IR Inten    --    56.2579                17.3007                 7.7598

                    46                     47                     48
                     A                      A                      A
 Frequencies --  3104.8837              3139.2426              3141.7206
 Red. masses --     1.1063                 1.1010                 1.1044
 Frc consts  --     6.2836                 6.3929                 6.4225
 IR Inten    --    31.4420                 7.6631                19.9964

                    49                     50                     51
                     A                      A                      A
 Frequencies --  3180.7133              3591.6074              3617.4201
 Red. masses --     1.0984                 1.0777                 1.0774
 Frc consts  --     6.5474                 8.1910                 8.3068
 IR Inten    --     0.9001                91.7093                24.8307

 - Thermochemistry -
 -------------------
 Temperature   298.150 Kelvin.  Pressure   1.00000 Atm.
 Atom     1 has atomic number  6 and mass  12.00000

 Molecular mass:   130.07423 amu.
 Principal axes and moments of inertia in atomic units:
                           1         2         3
     Eigenvalues --   359.294962678.903373004.43615
           X            0.99971   0.02411   0.00000
           Y           -0.02411   0.99971   0.00000
           Z            0.00000   0.00000   1.00000
 This molecule is an asymmetric top.
 Rotational symmetry number  1.
 Rotational temperatures (Kelvin)      0.24107     0.03233     0.02883
 Rotational constants (GHZ):           5.02301     0.67369     0.60069
 Zero-point vibrational energy     415552.0 (Joules/Mol)
                                   99.31931 (Kcal/Mol)
 Warning -- explicit consideration of  14 degrees of freedom as
           vibrations may cause significant error
 Vibrational temperatures:     31.16    61.03    81.07   103.59   161.13
          (Kelvin)            202.54   249.43   358.52   414.02   541.10
                              646.95   706.27   734.71   876.08   895.37
                              933.32  1008.19  1288.58  1428.93  1452.31
                             1464.80  1536.14  1540.41  1672.85  1692.65
                             1710.90  1793.29  1801.70  1839.82  1994.94
                             2053.48  2105.12  2161.59  2173.57  2191.14
                             2198.51  2200.29  2229.30  2296.19  2548.70
                             2573.78  4359.84  4390.78  4392.39  4409.58
                             4467.23  4516.66  4520.23  4576.33  5167.52
                             5204.65

 Zero-point correction=                           0.158275 (Hartree/Particle)
 Thermal correction to Energy=                    0.169327
 Thermal correction to Enthalpy=                  0.170271
 Thermal correction to Gibbs Free Energy=         0.119191
 Sum of electronic and zero-point Energies=           -456.377897
 Sum of electronic and thermal Energies=              -456.366846
 Sum of electronic and thermal Enthalpies=            -456.365902
 Sum of electronic and thermal Free Energies=         -456.416982

                     E (Thermal)             CV                S
                      KCal/Mol        Cal/Mol-Kelvin    Cal/Mol-Kelvin
 Total                  106.254             36.411            107.507
 Electronic               0.000              0.000              0.000
 Translational            0.889              2.981             40.502
 Rotational               0.889              2.981             29.449
 Vibrational            104.477             30.449             37.557
 Vibration     1          0.593              1.985              6.476
 Vibration     2          0.595              1.980              5.143
 Vibration     3          0.596              1.975              4.581
 Vibration     4          0.598              1.967              4.098
 Vibration     5          0.607              1.940              3.234
 Vibration     6          0.615              1.913              2.793
 Vibration     7          0.627              1.875              2.399
 Vibration     8          0.662              1.764              1.736
 Vibration     9          0.685              1.696              1.487
 Vibration    10          0.747              1.521              1.055
 Vibration    11          0.809              1.362              0.797
 Vibration    12          0.847              1.270              0.681
 Vibration    13          0.866              1.226              0.632
 Vibration    14          0.968              1.013              0.435

 Optimization completed.
    -- Stationary point found.
 Normal termination of Gaussian 09 at Fri Feb 16 21:38:01 2018.
