 Gaussian 09, Revision C.01,
 Gaussian 09:  AM64L-G09RevC.01 23-Sep-2011

 ----------------------------------------------------------------------
 #HF/6-31G* Geom=AllCheck Guess=Read Pop=(MK,ReadRadii) Integral=(Grid=
 UltraFine) iop(6/33=2)
 ----------------------------------------------------------------------

 Structure from the checkpoint file:  frag49-conf1.chk
 -----------------------------
 Optimization for frag49-conf1
 -----------------------------
 Charge =  0 Multiplicity = 1

                         Standard orientation:
 ---------------------------------------------------------------------
 Center     Atomic      Atomic             Coordinates (Angstroms)
 Number     Number       Type             X           Y           Z
 ---------------------------------------------------------------------
      1          6           0       -2.339339    0.175668    0.000006
      2          6           0        1.358801   -0.155237    0.000012
      3          6           0       -3.406828   -0.908317   -0.000058
      4          6           0        3.825278    0.019041   -0.000009
      5          6           0        0.057532    0.652780    0.000027
      6          7           0        2.491675    0.596651   -0.000112
      7          7           0       -1.051870   -0.265869   -0.000020
      8          8           0       -2.616182    1.371426    0.000058
      9          8           0        1.354852   -1.383174    0.000088
     10          1           0       -4.042608   -0.778197    0.881217
     11          1           0       -4.042164   -0.778522   -0.881704
     12          1           0       -3.000866   -1.924583    0.000226
     13          1           0        3.711569   -1.065484   -0.000422
     14          1           0        4.386065    0.320926    0.892051
     15          1           0        4.386443    0.321613   -0.891589
     16          1           0        0.020538    1.311619    0.879212
     17          1           0        0.020589    1.311682   -0.879111
     18          1           0        2.400405    1.603217    0.000024
     19          1           0       -0.800633   -1.247364   -0.000020
 ---------------------------------------------------------------------

 SCF Done:  E(RHF) =  -453.819590297     A.U. after   13 cycles

 The electronic state is 1-A.
 Alpha  occ. eigenvalues --  -20.54171 -20.51591 -15.60521 -15.58487 -11.37032
 Alpha  occ. eigenvalues --  -11.34959 -11.28454 -11.27150 -11.23455  -1.39368
 Alpha  occ. eigenvalues --   -1.36759  -1.24199  -1.22641  -1.02959  -0.98387
 Alpha  occ. eigenvalues --   -0.92645  -0.80382  -0.78984  -0.72373  -0.66714
 Alpha  occ. eigenvalues --   -0.65973  -0.65625  -0.63118  -0.62100  -0.58987
 Alpha  occ. eigenvalues --   -0.58366  -0.56299  -0.55711  -0.54898  -0.53240
 Alpha  occ. eigenvalues --   -0.49394  -0.43907  -0.41288  -0.40604  -0.38280
 Alpha virt. eigenvalues --    0.18100   0.20561   0.20957   0.23850   0.25981
 Alpha virt. eigenvalues --    0.26792   0.28469   0.30885   0.31259   0.33292
 Alpha virt. eigenvalues --    0.33714   0.34994   0.35217   0.39289   0.41214

 Mulliken atomic charges:
              1
     1  C    0.767673
     2  C    0.767026
     3  C   -0.575003
     4  C   -0.289136
     5  C   -0.164847
     6  N   -0.802684
     7  N   -0.833093
     8  O   -0.634910
     9  O   -0.642782
    10  H    0.205719
    11  H    0.205714
    12  H    0.174779
    13  H    0.232448
    14  H    0.174488
    15  H    0.174494
    16  H    0.210174
    17  H    0.210174
    18  H    0.390501
    19  H    0.429267
 Sum of Mulliken atomic charges =   0.00000

 Dipole moment (field-independent basis, Debye):
    X=              2.9604    Y=              0.1066    Z=              0.0000  Tot=              2.9623
 Quadrupole moment (field-independent basis, Debye-Ang):
   XX=            -48.3174   YY=            -58.3132   ZZ=            -53.7874
   XY=             16.1761   XZ=              0.0008   YZ=              0.0007

 Normal termination of Gaussian 09 at Sat Feb 17 21:04:59 2018.
