 Gaussian 09, Revision C.01,
 Gaussian 09:  AM64L-G09RevC.01 23-Sep-2011

 ---------------------------------------------------------
 #B3LYP/6-31G* Integral=(Grid=UltraFine) freq Opt pop=none
 ---------------------------------------------------------

 99/9=1/99;
 ----------------------------
 Optimization for frag3-conf1
 ----------------------------
 Charge =  1 Multiplicity = 1

 SCF Done:  E(RB3LYP) =  -613.913852485     A.U. after   15 cycles
 SCF Done:  E(RB3LYP) =  -613.922387921     A.U. after   13 cycles
 SCF Done:  E(RB3LYP) =  -613.924697590     A.U. after   12 cycles
 SCF Done:  E(RB3LYP) =  -613.926391999     A.U. after   12 cycles
 SCF Done:  E(RB3LYP) =  -613.926515164     A.U. after   12 cycles
 SCF Done:  E(RB3LYP) =  -613.927508953     A.U. after   12 cycles
 SCF Done:  E(RB3LYP) =  -613.926869320     A.U. after   13 cycles
 SCF Done:  E(RB3LYP) =  -613.927675191     A.U. after   12 cycles
 SCF Done:  E(RB3LYP) =  -613.927697933     A.U. after   10 cycles
 SCF Done:  E(RB3LYP) =  -613.927703289     A.U. after    9 cycles
 SCF Done:  E(RB3LYP) =  -613.927706742     A.U. after    9 cycles
 SCF Done:  E(RB3LYP) =  -613.927710621     A.U. after    9 cycles
 SCF Done:  E(RB3LYP) =  -613.927715735     A.U. after    9 cycles
 SCF Done:  E(RB3LYP) =  -613.927718893     A.U. after    9 cycles
 SCF Done:  E(RB3LYP) =  -613.927719099     A.U. after    8 cycles
 SCF Done:  E(RB3LYP) =  -613.927719145     A.U. after    7 cycles
 Optimization completed.
    -- Stationary point found.
 Normal termination of Gaussian 09 at Sat Feb 17 21:26:55 2018.

 --------------------------------------------------------------------
 #N Geom=AllCheck Guess=TCheck SCRF=Check GenChk RB3LYP/6-31G(d) Freq
 --------------------------------------------------------------------

 Structure from the checkpoint file:  frag3-conf1.chk
 ----------------------------
 Optimization for frag3-conf1
 ----------------------------
 Charge =  1 Multiplicity = 1

                         Standard orientation:
 ---------------------------------------------------------------------
 Center     Atomic      Atomic             Coordinates (Angstroms)
 Number     Number       Type             X           Y           Z
 ---------------------------------------------------------------------
      1          6           0       -4.368260    0.186205    0.131787
      2          6           0       -3.784279   -0.892398   -0.531106
      3          6           0       -3.585820    1.286597    0.495633
      4          6           0       -2.416961   -0.873550   -0.826601
      5          6           0       -2.222350    1.304405    0.206224
      6          6           0       -1.621878    0.224860   -0.459428
      7          6           0        2.168948   -0.513415    0.171036
      8          6           0        4.421145    0.096956   -0.480200
      9          6           0        2.814468    1.896048    0.068314
     10          6           0       -0.131502    0.210908   -0.732638
     11          6           0        0.699665   -0.149973    0.527614
     12          7           0        3.061806    0.460225   -0.056157
     13          7           0        0.165938   -1.436103    1.117489
     14          8           0        2.413460   -1.726466    0.074665
     15          1           0       -5.430727    0.177575    0.354979
     16          1           0       -4.389554   -1.741370   -0.834414
     17          1           0       -4.041130    2.134564    0.998519
     18          1           0       -1.978245   -1.696476   -1.389307
     19          1           0       -1.626558    2.172300    0.481877
     20          1           0        4.641135    0.568499   -1.443450
     21          1           0        4.489597   -0.984672   -0.574737
     22          1           0        5.143630    0.450374    0.262697
     23          1           0        3.567145    2.336834    0.730001
     24          1           0        1.830501    2.105409    0.486052
     25          1           0        2.889830    2.379504   -0.912173
     26          1           0        0.107789   -0.512214   -1.521305
     27          1           0        0.214816    1.187646   -1.085131
     28          1           0        0.606117    0.621563    1.292368
     29          1           0       -0.814806   -1.591527    0.836083
     30          1           0        0.224782   -1.462567    2.139453
     31          1           0        0.824732   -2.162420    0.728034
 ---------------------------------------------------------------------

 SCF Done:  E(RB3LYP) =  -613.927719145     A.U. after    1 cycles

 Isotropic polarizability for W=    0.000000      127.93 Bohr**3.
 End of Minotr Frequency-dependent properties file   721 does not exist.

                     1                      2                      3
                     A                      A                      A
 Frequencies --    40.2103                50.8355                64.1278
 Red. masses --     3.7670                 3.5653                 2.9080
 Frc consts  --     0.0036                 0.0054                 0.0070
 IR Inten    --     0.7918                 2.5711                 0.5454

                     4                      5                      6
                     A                      A                      A
 Frequencies --    84.8890                95.5475               114.3258
 Red. masses --     2.0663                 1.6196                 2.0465
 Frc consts  --     0.0088                 0.0087                 0.0158
 IR Inten    --     4.1870                 1.6093                 1.1382

                     7                      8                      9
                     A                      A                      A
 Frequencies --   124.9208               179.3899               251.8046
 Red. masses --     1.6072                 3.5197                 3.1875
 Frc consts  --     0.0148                 0.0667                 0.1191
 IR Inten    --     3.0792                 5.0779                 5.1917

                    10                     11                     12
                     A                      A                      A
 Frequencies --   264.6529               281.2765               329.8666
 Red. masses --     3.8465                 2.6942                 1.0790
 Frc consts  --     0.1587                 0.1256                 0.0692
 IR Inten    --    17.8743                13.7614                 3.2766

                    13                     14                     15
                     A                      A                      A
 Frequencies --   344.7153               368.2638               414.1350
 Red. masses --     2.5865                 2.4851                 2.6023
 Frc consts  --     0.1811                 0.1986                 0.2630
 IR Inten    --     0.8372                11.8998                11.6364

                    16                     17                     18
                     A                      A                      A
 Frequencies --   418.1205               434.7766               493.8959
 Red. masses --     2.9315                 3.3656                 3.5508
 Frc consts  --     0.3020                 0.3748                 0.5103
 IR Inten    --     2.0966               100.0006                21.5932

                    19                     20                     21
                     A                      A                      A
 Frequencies --   515.2343               584.3237               633.7500
 Red. masses --     3.8174                 4.3819                 6.1057
 Frc consts  --     0.5971                 0.8815                 1.4448
 IR Inten    --     9.2534                 3.6628                 0.8608

                    22                     23                     24
                     A                      A                      A
 Frequencies --   636.2774               704.2660               720.9806
 Red. masses --     4.6625                 7.0363                 2.2665
 Frc consts  --     1.1122                 2.0562                 0.6941
 IR Inten    --    10.2539                 4.8041                17.9526

                    25                     26                     27
                     A                      A                      A
 Frequencies --   764.2500               791.0060               850.0906
 Red. masses --     1.6270                 3.8866                 2.7811
 Frc consts  --     0.5599                 1.4328                 1.1841
 IR Inten    --    44.6079                24.4423                 0.4592

                    28                     29                     30
                     A                      A                      A
 Frequencies --   862.1815               868.0032               937.5458
 Red. masses --     2.2395                 1.5501                 1.3970
 Frc consts  --     0.9808                 0.6881                 0.7235
 IR Inten    --    11.7587                 2.5291                 8.9221

                    31                     32                     33
                     A                      A                      A
 Frequencies --   948.2770               961.1546               982.5315
 Red. masses --     1.8265                 2.8513                 1.3549
 Frc consts  --     0.9677                 1.5519                 0.7706
 IR Inten    --     5.9700                10.2751                 0.3268

                    34                     35                     36
                     A                      A                      A
 Frequencies --  1015.6473              1020.8082              1030.7751
 Red. masses --     3.7719                 1.5080                 3.3653
 Frc consts  --     2.2924                 0.9259                 2.1067
 IR Inten    --     4.1128                 0.3171                35.7711

                    37                     38                     39
                     A                      A                      A
 Frequencies --  1056.9690              1083.1220              1093.3694
 Red. masses --     2.2621                 1.4439                 1.3933
 Frc consts  --     1.4890                 0.9980                 0.9814
 IR Inten    --     0.5375                15.4500                19.7873

                    40                     41                     42
                     A                      A                      A
 Frequencies --  1118.3753              1131.1301              1146.3761
 Red. masses --     1.4006                 1.2263                 1.2753
 Frc consts  --     1.0322                 0.9244                 0.9874
 IR Inten    --    70.7965                 0.4389                38.2557

                    43                     44                     45
                     A                      A                      A
 Frequencies --  1179.4910              1183.3259              1201.2316
 Red. masses --     1.7996                 1.3898                 1.1099
 Frc consts  --     1.4751                 1.1466                 0.9436
 IR Inten    --    87.3989                 2.6812                 0.1407

                    46                     47                     48
                     A                      A                      A
 Frequencies --  1216.8933              1227.0192              1256.6024
 Red. masses --     1.1417                 2.7346                 1.9175
 Frc consts  --     0.9961                 2.4257                 1.7840
 IR Inten    --     0.5196                 0.9036                16.6923

                    49                     50                     51
                     A                      A                      A
 Frequencies --  1268.9400              1304.2473              1356.6615
 Red. masses --     2.6539                 1.5483                 2.3001
 Frc consts  --     2.5178                 1.5518                 2.4943
 IR Inten    --    43.9009                 3.1503                 0.7142

                    52                     53                     54
                     A                      A                      A
 Frequencies --  1367.8126              1379.4722              1393.9588
 Red. masses --     1.9854                 1.3508                 1.2559
 Frc consts  --     2.1885                 1.5145                 1.4378
 IR Inten    --     2.8846                12.7540                18.5949

                    55                     56                     57
                     A                      A                      A
 Frequencies --  1447.1411              1463.6839              1474.8974
 Red. masses --     1.2324                 1.1485                 2.0709
 Frc consts  --     1.5206                 1.4496                 2.6541
 IR Inten    --   391.1559                 6.8726                43.6409

                    58                     59                     60
                     A                      A                      A
 Frequencies --  1499.8854              1503.7539              1504.9148
 Red. masses --     1.8411                 1.1911                 1.1010
 Frc consts  --     2.4403                 1.5869                 1.4691
 IR Inten    --     6.0608                19.5618                11.9633

                    61                     62                     63
                     A                      A                      A
 Frequencies --  1515.5127              1527.4333              1529.1345
 Red. masses --     1.1193                 1.0801                 1.0660
 Frc consts  --     1.5146                 1.4847                 1.4686
 IR Inten    --     9.0656                15.6869                17.6383

                    64                     65                     66
                     A                      A                      A
 Frequencies --  1543.7487              1565.0567              1640.1978
 Red. masses --     2.1552                 1.4008                 5.2562
 Frc consts  --     3.0262                 2.0215                 8.3313
 IR Inten    --     8.1880                53.1382                 3.9332

                    67                     68                     69
                     A                      A                      A
 Frequencies --  1656.2104              1662.1447              1693.7752
 Red. masses --     3.1323                 1.2684                 1.0444
 Frc consts  --     5.0622                 2.0646                 1.7653
 IR Inten    --     9.2599                27.7687                 8.7829

                    70                     71                     72
                     A                      A                      A
 Frequencies --  1752.7703              3021.2098              3065.0626
 Red. masses --     5.4710                 1.0668                 1.0377
 Frc consts  --     9.9029                 5.7372                 5.7438
 IR Inten    --   250.2356               321.7984                15.5598

                    73                     74                     75
                     A                      A                      A
 Frequencies --  3070.9099              3071.2938              3119.2591
 Red. masses --     1.0456                 1.0541                 1.1020
 Frc consts  --     5.8098                 5.8585                 6.3172
 IR Inten    --     8.5693                18.4232                 1.8872

                    76                     77                     78
                     A                      A                      A
 Frequencies --  3124.6332              3132.4359              3147.6386
 Red. masses --     1.1053                 1.1064                 1.0889
 Frc consts  --     6.3580                 6.3964                 6.3563
 IR Inten    --     9.2637                 8.1906                 4.7987

                    79                     80                     81
                     A                      A                      A
 Frequencies --  3168.3757              3177.1348              3187.5377
 Red. masses --     1.0894                 1.0894                 1.0981
 Frc consts  --     6.4434                 6.4788                 6.5739
 IR Inten    --     5.2936                 8.6567                18.4742

                    82                     83                     84
                     A                      A                      A
 Frequencies --  3206.6154              3212.8181              3214.8258
 Red. masses --     1.0888                 1.1004                 1.0931
 Frc consts  --     6.5959                 6.6922                 6.6564
 IR Inten    --     0.1770                 0.4610                 6.8857

                    85                     86                     87
                     A                      A                      A
 Frequencies --  3225.7612              3340.8259              3501.0603
 Red. masses --     1.0977                 1.0693                 1.0826
 Frc consts  --     6.7295                 7.0317                 7.8185
 IR Inten    --     5.2782               303.6651               105.9673

 - Thermochemistry -
 -------------------
 Temperature   298.150 Kelvin.  Pressure   1.00000 Atm.
 Atom     1 has atomic number  6 and mass  12.00000

 Molecular mass:   193.13409 amu.
 Principal axes and moments of inertia in atomic units:
                           1         2         3
     Eigenvalues --  1064.083935599.216626181.24763
           X            0.99990   0.01360  -0.00445
           Y           -0.01355   0.99986   0.01016
           Z            0.00459  -0.01010   0.99994
 This molecule is an asymmetric top.
 Rotational symmetry number  1.
 Warning -- assumption of classical behavior for rotation
           may cause significant error
 Rotational temperatures (Kelvin)      0.08140     0.01547     0.01401
 Rotational constants (GHZ):           1.69605     0.32232     0.29197
 Zero-point vibrational energy     718450.3 (Joules/Mol)
                                  171.71375 (Kcal/Mol)
 Warning -- explicit consideration of  20 degrees of freedom as
           vibrations may cause significant error
 Vibrational temperatures:     57.85    73.14    92.27   122.14   137.47
          (Kelvin)            164.49   179.73   258.10   362.29   380.78
                              404.69   474.60   495.97   529.85   595.85
                              601.58   625.55   710.61   741.31   840.71
                              911.82   915.46  1013.28  1037.33  1099.58
                             1138.08  1223.09  1240.49  1248.86  1348.92
                             1364.36  1382.89  1413.64  1461.29  1468.71
                             1483.05  1520.74  1558.37  1573.11  1609.09
                             1627.44  1649.38  1697.02  1702.54  1728.30
                             1750.84  1765.40  1807.97  1825.72  1876.52
                             1951.93  1967.97  1984.75  2005.59  2082.11
                             2105.91  2122.05  2158.00  2163.56  2165.23
                             2180.48  2197.63  2200.08  2221.11  2251.76
                             2359.88  2382.91  2391.45  2436.96  2521.84
                             4346.84  4409.94  4418.35  4418.90  4487.91
                             4495.64  4506.87  4528.74  4558.58  4571.18
                             4586.15  4613.60  4622.52  4625.41  4641.15
                             4806.70  5037.24

 Zero-point correction=                           0.273643 (Hartree/Particle)
 Thermal correction to Energy=                    0.287928
 Thermal correction to Enthalpy=                  0.288872
 Thermal correction to Gibbs Free Energy=         0.231552
 Sum of electronic and zero-point Energies=           -613.654076
 Sum of electronic and thermal Energies=              -613.639791
 Sum of electronic and thermal Enthalpies=            -613.638847
 Sum of electronic and thermal Free Energies=         -613.696167

                     E (Thermal)             CV                S
                      KCal/Mol        Cal/Mol-Kelvin    Cal/Mol-Kelvin
 Total                  180.678             53.268            120.640
 Electronic               0.000              0.000              0.000
 Translational            0.889              2.981             41.680
 Rotational               0.889              2.981             31.977
 Vibrational            178.900             47.306             46.983
 Vibration     1          0.594              1.981              5.249
 Vibration     2          0.595              1.977              4.785
 Vibration     3          0.597              1.971              4.326
 Vibration     4          0.601              1.960              3.775
 Vibration     5          0.603              1.952              3.543
 Vibration     6          0.607              1.938              3.194
 Vibration     7          0.610              1.928              3.023
 Vibration     8          0.629              1.868              2.335
 Vibration     9          0.664              1.760              1.718
 Vibration    10          0.671              1.738              1.631
 Vibration    11          0.681              1.708              1.526
 Vibration    12          0.713              1.616              1.261
 Vibration    13          0.723              1.586              1.190
 Vibration    14          0.741              1.537              1.087
 Vibration    15          0.778              1.440              0.912
 Vibration    16          0.781              1.431              0.898
 Vibration    17          0.795              1.394              0.843
 Vibration    18          0.850              1.264              0.674
 Vibration    19          0.870              1.216              0.621
 Vibration    20          0.941              1.065              0.477

 Normal termination of Gaussian 09 at Sat Feb 17 21:50:46 2018.
