 Gaussian 09, Revision C.01,
 Gaussian 09:  AM64L-G09RevC.01 23-Sep-2011

 ----------------------------------------------------------------------
 #HF/6-31G* Geom=AllCheck Guess=Read Pop=(MK,ReadRadii) Integral=(Grid=
 UltraFine) iop(6/33=2)
 ----------------------------------------------------------------------

 Structure from the checkpoint file:  frag3-conf1.chk
 ----------------------------
 Optimization for frag3-conf1
 ----------------------------
 Charge =  1 Multiplicity = 1

                         Standard orientation:
 ---------------------------------------------------------------------
 Center     Atomic      Atomic             Coordinates (Angstroms)
 Number     Number       Type             X           Y           Z
 ---------------------------------------------------------------------
      1          6           0       -4.368260    0.186205    0.131787
      2          6           0       -3.784279   -0.892398   -0.531106
      3          6           0       -3.585820    1.286597    0.495633
      4          6           0       -2.416961   -0.873550   -0.826601
      5          6           0       -2.222350    1.304405    0.206224
      6          6           0       -1.621878    0.224860   -0.459428
      7          6           0        2.168948   -0.513415    0.171036
      8          6           0        4.421145    0.096956   -0.480200
      9          6           0        2.814468    1.896048    0.068314
     10          6           0       -0.131502    0.210908   -0.732638
     11          6           0        0.699665   -0.149973    0.527614
     12          7           0        3.061806    0.460225   -0.056157
     13          7           0        0.165938   -1.436103    1.117489
     14          8           0        2.413460   -1.726466    0.074665
     15          1           0       -5.430727    0.177575    0.354979
     16          1           0       -4.389554   -1.741370   -0.834414
     17          1           0       -4.041130    2.134564    0.998519
     18          1           0       -1.978245   -1.696476   -1.389307
     19          1           0       -1.626558    2.172300    0.481877
     20          1           0        4.641135    0.568499   -1.443450
     21          1           0        4.489597   -0.984672   -0.574737
     22          1           0        5.143630    0.450374    0.262697
     23          1           0        3.567145    2.336834    0.730001
     24          1           0        1.830501    2.105409    0.486052
     25          1           0        2.889830    2.379504   -0.912173
     26          1           0        0.107789   -0.512214   -1.521305
     27          1           0        0.214816    1.187646   -1.085131
     28          1           0        0.606117    0.621563    1.292368
     29          1           0       -0.814806   -1.591527    0.836083
     30          1           0        0.224782   -1.462567    2.139453
     31          1           0        0.824732   -2.162420    0.728034
 ---------------------------------------------------------------------

 SCF Done:  E(RHF) =  -610.010750547     A.U. after   13 cycles

 The electronic state is 1-A.
 Alpha  occ. eigenvalues --  -20.68831 -15.84776 -15.75129 -11.52099 -11.47683
 Alpha  occ. eigenvalues --  -11.40750 -11.40402 -11.38320 -11.38061 -11.36861
 Alpha  occ. eigenvalues --  -11.36610 -11.36117 -11.36050 -11.35642  -1.54714
 Alpha  occ. eigenvalues --   -1.46131  -1.39785  -1.28541  -1.22032  -1.14932
 Alpha  occ. eigenvalues --   -1.13879  -1.10984  -1.08449  -1.03533  -0.95657
 Alpha  occ. eigenvalues --   -0.94515  -0.93088  -0.92191  -0.88811  -0.83289
 Alpha  occ. eigenvalues --   -0.82918  -0.81597  -0.79226  -0.78057  -0.76198
 Alpha  occ. eigenvalues --   -0.75070  -0.73284  -0.71448  -0.70982  -0.70582
 Alpha  occ. eigenvalues --   -0.69047  -0.68693  -0.67784  -0.66823  -0.66536
 Alpha  occ. eigenvalues --   -0.62363  -0.61667  -0.61455  -0.58550  -0.52050
 Alpha  occ. eigenvalues --   -0.46121  -0.45726
 Alpha virt. eigenvalues --   -0.00076   0.00492   0.03145   0.03492   0.07578
 Alpha virt. eigenvalues --    0.10476   0.11452   0.13037   0.13963   0.14842
 Alpha virt. eigenvalues --    0.15397   0.16017   0.17985   0.18911   0.19106

 Mulliken atomic charges:
              1
     1  C   -0.197433
     2  C   -0.184736
     3  C   -0.187301
     4  C   -0.276402
     5  C   -0.220544
     6  C   -0.005280
     7  C    0.830285
     8  C   -0.317500
     9  C   -0.306252
    10  C   -0.385467
    11  C   -0.138235
    12  N   -0.660628
    13  N   -0.897602
    14  O   -0.669521
    15  H    0.244098
    16  H    0.242662
    17  H    0.241475
    18  H    0.226982
    19  H    0.214186
    20  H    0.202867
    21  H    0.255272
    22  H    0.203401
    23  H    0.221598
    24  H    0.178801
    25  H    0.215979
    26  H    0.238708
    27  H    0.239915
    28  H    0.258552
    29  H    0.465894
    30  H    0.457425
    31  H    0.508802
 Sum of Mulliken atomic charges =   1.00000

 Dipole moment (field-independent basis, Debye):
    X=              0.8728    Y=              0.2572    Z=              3.3729  Tot=              3.4934
 Quadrupole moment (field-independent basis, Debye-Ang):
   XX=            -48.7787   YY=            -71.2283   ZZ=            -75.7864
   XY=             11.5977   XZ=             -2.3925   YZ=             -2.0090

 Normal termination of Gaussian 09 at Sun Feb 18 17:07:24 2018.
