 Gaussian 09, Revision C.01,
 Gaussian 09:  AM64L-G09RevC.01 23-Sep-2011

 ---------------------------------------------------------
 #B3LYP/6-31G* Integral=(Grid=UltraFine) freq Opt pop=none
 ---------------------------------------------------------

 99/9=1/99;
 -----------------------------
 Optimization for frag44-conf0
 -----------------------------
 Charge =  1 Multiplicity = 1

 SCF Done:  E(RB3LYP) =  -381.452797443     A.U. after   14 cycles
 SCF Done:  E(RB3LYP) =  -381.455018912     A.U. after   13 cycles
 SCF Done:  E(RB3LYP) =  -381.457268810     A.U. after   14 cycles
 SCF Done:  E(RB3LYP) =  -381.458137811     A.U. after   12 cycles
 SCF Done:  E(RB3LYP) =  -381.458620733     A.U. after   11 cycles
 SCF Done:  E(RB3LYP) =  -381.458644399     A.U. after   10 cycles
 SCF Done:  E(RB3LYP) =  -381.458650619     A.U. after    8 cycles
 SCF Done:  E(RB3LYP) =  -381.458653525     A.U. after    8 cycles
 Optimization completed.
    -- Stationary point found.
 Normal termination of Gaussian 09 at Fri Aug 24 15:02:45 2018.

 --------------------------------------------------------------------
 #N Geom=AllCheck Guess=TCheck SCRF=Check GenChk RB3LYP/6-31G(d) Freq
 --------------------------------------------------------------------

 Structure from the checkpoint file:  frag44-conf0.chk
 -----------------------------
 Optimization for frag44-conf0
 -----------------------------
 Charge =  1 Multiplicity = 1

                         Standard orientation:
 ---------------------------------------------------------------------
 Center     Atomic      Atomic             Coordinates (Angstroms)
 Number     Number       Type             X           Y           Z
 ---------------------------------------------------------------------
      1          7           0       -2.309991   -1.055314    0.462057
      2          6           0       -1.645359   -0.000018   -0.000036
      3          7           0       -2.310053    1.055281   -0.461992
      4          1           0       -1.815394    1.785347   -0.957339
      5          1           0       -3.317821    1.140740   -0.399276
      6          6           0       -0.178429   -0.000017   -0.000068
      7          6           0        0.524853   -1.193671   -0.249004
      8          6           0        1.915989   -1.186601   -0.252143
      9          6           0        2.610903    0.000030    0.000054
     10          6           0        1.915934    1.186644    0.252165
     11          6           0        0.524794    1.193657    0.248928
     12          1           0       -3.317769   -1.140772    0.399509
     13          1           0       -1.815225   -1.785336    0.957359
     14          1           0       -0.008911   -2.109203   -0.488107
     15          1           0        2.457938   -2.103183   -0.461270
     16          1           0        3.696549    0.000041    0.000122
     17          1           0        2.457836    2.103256    0.461275
     18          1           0       -0.009009    2.109201    0.487894
 ---------------------------------------------------------------------

 SCF Done:  E(RB3LYP) =  -381.458653525     A.U. after    1 cycles

 Isotropic polarizability for W=    0.000000       80.92 Bohr**3.
 End of Minotr Frequency-dependent properties file   721 does not exist.

                     1                      2                      3
                     A                      A                      A
 Frequencies --    92.7303               141.2846               218.5538
 Red. masses --     3.7701                 3.7298                 3.6804
 Frc consts  --     0.0191                 0.0439                 0.1036
 IR Inten    --     0.8673                 5.2700                 1.7479

                     4                      5                      6
                     A                      A                      A
 Frequencies --   371.6833               389.2657               413.7968
 Red. masses --     4.1037                 3.2760                 2.9799
 Frc consts  --     0.3340                 0.2925                 0.3006
 IR Inten    --     4.1604                 3.0707                 1.2632

                     7                      8                      9
                     A                      A                      A
 Frequencies --   472.9943               494.7298               517.1320
 Red. masses --     1.2080                 1.1034                 1.6760
 Frc consts  --     0.1592                 0.1591                 0.2641
 IR Inten    --    15.0301                 1.3223               270.6865

                    10                     11                     12
                     A                      A                      A
 Frequencies --   535.6082               581.4161               627.4216
 Red. masses --     1.9047                 2.5309                 5.6348
 Frc consts  --     0.3219                 0.5041                 1.3069
 IR Inten    --   192.7649                 1.7725                 0.1995

                    13                     14                     15
                     A                      A                      A
 Frequencies --   650.1662               698.7810               723.4437
 Red. masses --     1.2985                 2.3866                 2.2482
 Frc consts  --     0.3234                 0.6866                 0.6933
 IR Inten    --    10.9205                 6.8171                38.9505

                    16                     17                     18
                     A                      A                      A
 Frequencies --   771.2312               792.9523               860.7587
 Red. masses --     4.3407                 1.9092                 1.2494
 Frc consts  --     1.5212                 0.7073                 0.5454
 IR Inten    --     0.0114                24.6533                 3.1581

                    19                     20                     21
                     A                      A                      A
 Frequencies --   959.1841               991.6305              1015.4498
 Red. masses --     1.3178                 1.3780                 5.5408
 Frc consts  --     0.7144                 0.7984                 3.3662
 IR Inten    --     1.2129                 1.0419                 5.1631

                    22                     23                     24
                     A                      A                      A
 Frequencies --  1031.8847              1053.5638              1071.4636
 Red. masses --     1.3255                 2.4352                 1.3018
 Frc consts  --     0.8315                 1.5926                 0.8805
 IR Inten    --     0.0176                 0.0332                 1.6785

                    25                     26                     27
                     A                      A                      A
 Frequencies --  1109.8440              1128.0178              1181.0126
 Red. masses --     2.0397                 1.5850                 2.6013
 Frc consts  --     1.4803                 1.1883                 2.1377
 IR Inten    --     0.2452                 5.0749                14.3137

                    28                     29                     30
                     A                      A                      A
 Frequencies --  1207.4552              1224.1377              1353.3996
 Red. masses --     1.0988                 1.1595                 2.2223
 Frc consts  --     0.9439                 1.0237                 2.3983
 IR Inten    --     0.3037                 2.8156                 1.0260

                    31                     32                     33
                     A                      A                      A
 Frequencies --  1378.6320              1492.1273              1511.4426
 Red. masses --     2.3250                 2.2270                 2.3551
 Frc consts  --     2.6035                 2.9214                 3.1698
 IR Inten    --     5.4477                 7.2688               173.9626

                    34                     35                     36
                     A                      A                      A
 Frequencies --  1554.9350              1582.1336              1633.5867
 Red. masses --     2.8135                 1.7685                 3.8378
 Frc consts  --     4.0080                 2.6081                 6.0342
 IR Inten    --    94.4093                 7.1661                11.7877

                    37                     38                     39
                     A                      A                      A
 Frequencies --  1650.9148              1705.2121              1723.6915
 Red. masses --     5.2141                 1.2436                 2.4015
 Frc consts  --     8.3730                 2.1306                 4.2039
 IR Inten    --    53.1136               165.3040               388.4091

                    40                     41                     42
                     A                      A                      A
 Frequencies --  3201.4355              3202.4401              3216.7474
 Red. masses --     1.0895                 1.0896                 1.0901
 Frc consts  --     6.5790                 6.5835                 6.6460
 IR Inten    --     0.8879                 1.3620                 0.2772

                    43                     44                     45
                     A                      A                      A
 Frequencies --  3227.0425              3233.8699              3569.0923
 Red. masses --     1.0941                 1.0981                 1.0470
 Frc consts  --     6.7129                 6.7662                 7.8582
 IR Inten    --     1.4420                 0.7293               175.9720

                    46                     47                     48
                     A                      A                      A
 Frequencies --  3580.2911              3686.0207              3686.6963
 Red. masses --     1.0497                 1.1040                 1.1059
 Frc consts  --     7.9275                 8.8374                 8.8561
 IR Inten    --   128.8062                73.4680                98.4329

 - Thermochemistry -
 -------------------
 Temperature   298.150 Kelvin.  Pressure   1.00000 Atm.
 Atom     1 has atomic number  7 and mass  14.00307

 Molecular mass:   121.07657 amu.
 Principal axes and moments of inertia in atomic units:
                           1         2         3
     Eigenvalues --   493.449051520.038621927.29057
           X            1.00000   0.00000   0.00000
           Y            0.00000   1.00000  -0.00285
           Z            0.00000   0.00285   1.00000
 This molecule is an asymmetric top.
 Rotational symmetry number  1.
 Warning -- assumption of classical behavior for rotation
           may cause significant error
 Rotational temperatures (Kelvin)      0.17553     0.05698     0.04494
 Rotational constants (GHZ):           3.65740     1.18730     0.93641
 Zero-point vibrational energy     403843.2 (Joules/Mol)
                                   96.52083 (Kcal/Mol)
 Warning -- explicit consideration of  11 degrees of freedom as
           vibrations may cause significant error
 Vibrational temperatures:    133.42   203.28   314.45   534.77   560.07
          (Kelvin)            595.36   680.53   711.81   744.04   770.62
                              836.53   902.72   935.44  1005.39  1040.87
                             1109.63  1140.88  1238.44  1380.05  1426.73
                             1461.00  1484.65  1515.84  1541.60  1596.82
                             1622.96  1699.21  1737.26  1761.26  1947.24
                             1983.54  2146.84  2174.63  2237.20  2276.33
                             2350.36  2375.30  2453.42  2480.00  4606.15
                             4607.59  4628.18  4642.99  4652.81  5135.12
                             5151.23  5303.36  5304.33

 Zero-point correction=                           0.153816 (Hartree/Particle)
 Thermal correction to Energy=                    0.161669
 Thermal correction to Enthalpy=                  0.162613
 Thermal correction to Gibbs Free Energy=         0.121605
 Sum of electronic and zero-point Energies=           -381.304838
 Sum of electronic and thermal Energies=              -381.296985
 Sum of electronic and thermal Enthalpies=            -381.296041
 Sum of electronic and thermal Free Energies=         -381.337048

                     E (Thermal)             CV                S
                      KCal/Mol        Cal/Mol-Kelvin    Cal/Mol-Kelvin
 Total                  101.449             31.510             86.307
 Electronic               0.000              0.000              0.000
 Translational            0.889              2.981             40.288
 Rotational               0.889              2.981             28.760
 Vibrational             99.671             25.548             17.259
 Vibration     1          0.602              1.954              3.602
 Vibration     2          0.615              1.912              2.786
 Vibration     3          0.646              1.813              1.971
 Vibration     4          0.743              1.530              1.073
 Vibration     5          0.757              1.493              1.003
 Vibration     6          0.777              1.440              0.913
 Vibration     7          0.830              1.310              0.729
 Vibration     8          0.850              1.262              0.671
 Vibration     9          0.872              1.212              0.617
 Vibration    10          0.891              1.171              0.575
 Vibration    11          0.938              1.072              0.483

 Optimization completed.
    -- Stationary point found.
 Normal termination of Gaussian 09 at Fri Aug 24 15:07:55 2018.
