 Gaussian 09, Revision C.01,
 Gaussian 09:  AM64L-G09RevC.01 23-Sep-2011

 ----------------------------------------------------------------------
 #HF/6-31G* Geom=AllCheck Guess=Read Pop=(MK,ReadRadii) Integral=(Grid=
 UltraFine) iop(6/33=2)
 ----------------------------------------------------------------------

 Structure from the checkpoint file:  frag44-conf0.chk
 -----------------------------
 Optimization for frag44-conf0
 -----------------------------
 Charge =  1 Multiplicity = 1

                         Standard orientation:
 ---------------------------------------------------------------------
 Center     Atomic      Atomic             Coordinates (Angstroms)
 Number     Number       Type             X           Y           Z
 ---------------------------------------------------------------------
      1          7           0       -2.309991   -1.055314    0.462057
      2          6           0       -1.645359   -0.000018   -0.000036
      3          7           0       -2.310053    1.055281   -0.461992
      4          1           0       -1.815394    1.785347   -0.957339
      5          1           0       -3.317821    1.140740   -0.399276
      6          6           0       -0.178429   -0.000017   -0.000068
      7          6           0        0.524853   -1.193671   -0.249004
      8          6           0        1.915989   -1.186601   -0.252143
      9          6           0        2.610903    0.000030    0.000054
     10          6           0        1.915934    1.186644    0.252165
     11          6           0        0.524794    1.193657    0.248928
     12          1           0       -3.317769   -1.140772    0.399509
     13          1           0       -1.815225   -1.785336    0.957359
     14          1           0       -0.008911   -2.109203   -0.488107
     15          1           0        2.457938   -2.103183   -0.461270
     16          1           0        3.696549    0.000041    0.000122
     17          1           0        2.457836    2.103256    0.461275
     18          1           0       -0.009009    2.109201    0.487894
 ---------------------------------------------------------------------

 SCF Done:  E(RHF) =  -379.031817186     A.U. after   13 cycles

 The electronic state is 1-A.
 Alpha  occ. eigenvalues --  -15.80007 -15.80004 -11.56899 -11.41833 -11.40648
 Alpha  occ. eigenvalues --  -11.40642 -11.39142 -11.38383 -11.38374  -1.50483
 Alpha  occ. eigenvalues --   -1.38783  -1.30993  -1.19532  -1.17056  -1.07404
 Alpha  occ. eigenvalues --   -0.99267  -0.98743  -0.93199  -0.93050  -0.85900
 Alpha  occ. eigenvalues --   -0.84834  -0.80578  -0.78659  -0.75136  -0.74462
 Alpha  occ. eigenvalues --   -0.73652  -0.65798  -0.65245  -0.64654  -0.61176
 Alpha  occ. eigenvalues --   -0.49456  -0.48663
 Alpha virt. eigenvalues --   -0.07610  -0.01428   0.03805   0.03859   0.08397
 Alpha virt. eigenvalues --    0.08998   0.10791   0.12197   0.16628   0.17169
 Alpha virt. eigenvalues --    0.20177   0.21107   0.22288   0.27548   0.30100

 Mulliken atomic charges:
              1
     1  N   -0.889402
     2  C    0.746889
     3  N   -0.889409
     4  H    0.453857
     5  H    0.441308
     6  C   -0.082960
     7  C   -0.190970
     8  C   -0.203331
     9  C   -0.161853
    10  C   -0.203329
    11  C   -0.190962
    12  H    0.441306
    13  H    0.453857
    14  H    0.248313
    15  H    0.257754
    16  H    0.262873
    17  H    0.257754
    18  H    0.248305
 Sum of Mulliken atomic charges =   1.00000

 Dipole moment (field-independent basis, Debye):
    X=             -5.6833    Y=              0.0001    Z=              0.0001  Tot=              5.6833
 Quadrupole moment (field-independent basis, Debye-Ang):
   XX=            -13.9212   YY=            -35.9570   ZZ=            -53.5733
   XY=             -0.0006   XZ=             -0.0004   YZ=             -2.7789

 Normal termination of Gaussian 09 at Fri Aug 24 15:36:03 2018.
