 Gaussian 09, Revision C.01,
 Gaussian 09:  AM64L-G09RevC.01 23-Sep-2011

 ---------------------------------------------------------
 #B3LYP/6-31G* Integral=(Grid=UltraFine) freq Opt pop=none
 ---------------------------------------------------------

 99/9=1/99;
 -----------------------------
 Optimization for frag51-conf2
 -----------------------------
 Charge =  0 Multiplicity = 1

 SCF Done:  E(RB3LYP) =  -1053.68242925     A.U. after   15 cycles
 SCF Done:  E(RB3LYP) =  -1053.68654617     A.U. after   13 cycles
 SCF Done:  E(RB3LYP) =  -1053.68702636     A.U. after   12 cycles
 SCF Done:  E(RB3LYP) =  -1053.68720625     A.U. after   12 cycles
 SCF Done:  E(RB3LYP) =  -1053.68722477     A.U. after   13 cycles
 SCF Done:  E(RB3LYP) =  -1053.68734691     A.U. after   11 cycles
 SCF Done:  E(RB3LYP) =  -1053.68743279     A.U. after   12 cycles
 SCF Done:  E(RB3LYP) =  -1053.68747940     A.U. after   12 cycles
 SCF Done:  E(RB3LYP) =  -1053.68750768     A.U. after   11 cycles
 SCF Done:  E(RB3LYP) =  -1053.68755133     A.U. after   12 cycles
 SCF Done:  E(RB3LYP) =  -1053.68764940     A.U. after   11 cycles
 SCF Done:  E(RB3LYP) =  -1053.68768539     A.U. after   11 cycles
 SCF Done:  E(RB3LYP) =  -1053.68769646     A.U. after   11 cycles
 SCF Done:  E(RB3LYP) =  -1053.68770198     A.U. after   10 cycles
 SCF Done:  E(RB3LYP) =  -1053.68770482     A.U. after   10 cycles
 SCF Done:  E(RB3LYP) =  -1053.68770621     A.U. after   10 cycles
 SCF Done:  E(RB3LYP) =  -1053.68770668     A.U. after    9 cycles
 SCF Done:  E(RB3LYP) =  -1053.68770687     A.U. after    9 cycles
 SCF Done:  E(RB3LYP) =  -1053.68770691     A.U. after    8 cycles
 Optimization completed.
    -- Stationary point found.
 Normal termination of Gaussian 09 at Fri Feb 16 22:15:48 2018.

 --------------------------------------------------------------------
 #N Geom=AllCheck Guess=TCheck SCRF=Check GenChk RB3LYP/6-31G(d) Freq
 --------------------------------------------------------------------

 Structure from the checkpoint file:  frag51-conf2.chk
 -----------------------------
 Optimization for frag51-conf2
 -----------------------------
 Charge =  0 Multiplicity = 1

                         Standard orientation:
 ---------------------------------------------------------------------
 Center     Atomic      Atomic             Coordinates (Angstroms)
 Number     Number       Type             X           Y           Z
 ---------------------------------------------------------------------
      1          6           0       -2.423089    0.631321    0.322438
      2          6           0       -2.529660   -0.756750    0.385665
      3          6           0       -0.253812   -0.943982   -0.424171
      4          6           0       -1.243456    1.250716   -0.104343
      5          6           0       -0.148097    0.451838   -0.482507
      6          6           0       -1.436800   -1.533634    0.009273
      7          6           0        3.166118   -0.044661    0.056504
      8          6           0        4.120061   -0.064396    1.241012
      9          6           0        1.178495    1.042003   -0.939488
     10          6           0       -1.169663    2.765589   -0.169786
     11          7           0        2.231563    0.958660    0.070572
     12          8           0        3.240043   -0.867342   -0.848962
     13          8           0       -2.346446    3.325977    0.391820
     14         17           0       -1.555159   -3.289259    0.077608
     15          1           0       -3.263803    1.250685    0.611568
     16          1           0       -3.447932   -1.228204    0.719475
     17          1           0        0.592807   -1.557402   -0.716376
     18          1           0        4.029675    0.807953    1.895967
     19          1           0        3.934796   -0.969418    1.829149
     20          1           0        5.144605   -0.124255    0.863685
     21          1           0        1.555967    0.484730   -1.799840
     22          1           0        1.070099    2.086820   -1.244947
     23          1           0       -0.276045    3.120976    0.371102
     24          1           0       -1.049657    3.084514   -1.219099
     25          1           0        2.129333    1.509312    0.911620
     26          1           0       -2.312431    4.283712    0.253901
 ---------------------------------------------------------------------

 SCF Done:  E(RB3LYP) =  -1053.68770691     A.U. after    1 cycles

 Isotropic polarizability for W=    0.000000      124.99 Bohr**3.
 End of Minotr Frequency-dependent properties file   721 does not exist.

                     1                      2                      3
                     A                      A                      A
 Frequencies --    17.5324                38.3152                52.3535
 Red. masses --     4.4607                 3.5263                 2.4187
 Frc consts  --     0.0008                 0.0031                 0.0039
 IR Inten    --     2.7478                 1.3569                11.7354

                     4                      5                      6
                     A                      A                      A
 Frequencies --    63.0887                70.8549               117.0790
 Red. masses --     2.2477                 2.5245                 2.7955
 Frc consts  --     0.0053                 0.0075                 0.0226
 IR Inten    --     3.6650                 3.0467                10.0598

                     7                      8                      9
                     A                      A                      A
 Frequencies --   160.8892               174.4110               194.4027
 Red. masses --     5.7280                 5.7975                 6.4176
 Frc consts  --     0.0874                 0.1039                 0.1429
 IR Inten    --     1.7478                 4.7738                 2.1954

                    10                     11                     12
                     A                      A                      A
 Frequencies --   244.7155               283.7478               301.8817
 Red. masses --     1.2215                 3.5407                 4.1790
 Frc consts  --     0.0431                 0.1680                 0.2244
 IR Inten    --   111.7615                 9.6321                 1.3714

                    13                     14                     15
                     A                      A                      A
 Frequencies --   327.2854               345.7086               394.9785
 Red. masses --     3.9517                 3.4290                 4.5221
 Frc consts  --     0.2494                 0.2415                 0.4157
 IR Inten    --     1.3853                 1.9901                 9.6527

                    16                     17                     18
                     A                      A                      A
 Frequencies --   438.9941               452.5576               479.5728
 Red. masses --     3.1198                 1.2734                 3.4207
 Frc consts  --     0.3542                 0.1537                 0.4635
 IR Inten    --     8.8945               102.2413                22.0560

                    19                     20                     21
                     A                      A                      A
 Frequencies --   520.2835               537.1055               611.7594
 Red. masses --     3.7465                 4.7822                 3.9025
 Frc consts  --     0.5975                 0.8128                 0.8605
 IR Inten    --     6.1162                 6.6805                 8.6642

                    22                     23                     24
                     A                      A                      A
 Frequencies --   615.1982               650.1959               659.4377
 Red. masses --     3.2537                 3.1923                 5.7868
 Frc consts  --     0.7255                 0.7951                 1.4827
 IR Inten    --     0.4732                 2.7386                 9.1578

                    25                     26                     27
                     A                      A                      A
 Frequencies --   739.4651               779.9345               834.1982
 Red. masses --     4.0202                 4.0748                 1.3065
 Frc consts  --     1.2952                 1.4604                 0.5357
 IR Inten    --     4.3450                14.1264                27.2500

                    28                     29                     30
                     A                      A                      A
 Frequencies --   863.7017               895.6400               935.0096
 Red. masses --     2.8488                 4.6747                 1.4339
 Frc consts  --     1.2521                 2.2094                 0.7386
 IR Inten    --     4.4427                27.7881                 9.0257

                    31                     32                     33
                     A                      A                      A
 Frequencies --   967.9490              1000.8498              1032.9387
 Red. masses --     1.2941                 1.6654                 2.6190
 Frc consts  --     0.7144                 0.9829                 1.6464
 IR Inten    --     0.4093                 2.3536                 4.1448

                    34                     35                     36
                     A                      A                      A
 Frequencies --  1051.4152              1067.8776              1086.0852
 Red. masses --     1.7218                 1.6993                 5.9563
 Frc consts  --     1.1215                 1.1417                 4.1396
 IR Inten    --     1.4975                 8.4004                89.2056

                    37                     38                     39
                     A                      A                      A
 Frequencies --  1101.1739              1122.2069              1149.3647
 Red. masses --     3.3863                 2.2143                 2.5295
 Frc consts  --     2.4193                 1.6430                 1.9688
 IR Inten    --     4.6333                21.8832                10.0615

                    40                     41                     42
                     A                      A                      A
 Frequencies --  1201.1444              1209.2754              1258.6663
 Red. masses --     1.7744                 1.4852                 1.5167
 Frc consts  --     1.5083                 1.2796                 1.4157
 IR Inten    --    37.0495                66.6149                14.4292

                    43                     44                     45
                     A                      A                      A
 Frequencies --  1265.5782              1278.7001              1285.5951
 Red. masses --     1.7191                 1.1087                 1.8731
 Frc consts  --     1.6223                 1.0680                 1.8240
 IR Inten    --    55.7681                 3.2420                98.4471

                    46                     47                     48
                     A                      A                      A
 Frequencies --  1328.9125              1354.1391              1398.9019
 Red. masses --     1.2554                 3.6336                 1.3171
 Frc consts  --     1.3062                 3.9257                 1.5186
 IR Inten    --    30.3929                 6.3501                10.2769

                    49                     50                     51
                     A                      A                      A
 Frequencies --  1426.1020              1445.6100              1469.9128
 Red. masses --     1.2614                 3.3001                 1.4676
 Frc consts  --     1.5115                 4.0633                 1.8682
 IR Inten    --    22.8304                20.3882                30.2484

                    52                     53                     54
                     A                      A                      A
 Frequencies --  1500.1284              1513.6533              1515.8870
 Red. masses --     1.0520                 1.1136                 1.0741
 Frc consts  --     1.3948                 1.5033                 1.4542
 IR Inten    --    12.2833                14.6211                15.5754

                    55                     56                     57
                     A                      A                      A
 Frequencies --  1530.1034              1544.6774              1553.5300
 Red. masses --     2.1787                 1.1668                 1.8000
 Frc consts  --     3.0053                 1.6403                 2.5595
 IR Inten    --    60.0222                 8.9067               187.6068

                    58                     59                     60
                     A                      A                      A
 Frequencies --  1627.2715              1652.1703              1779.5878
 Red. masses --     6.9899                 6.0808                 8.9627
 Frc consts  --    10.9054                 9.7795                16.7235
 IR Inten    --    20.0064                12.8881               198.3605

                    61                     62                     63
                     A                      A                      A
 Frequencies --  2968.5837              2987.5899              3064.1150
 Red. masses --     1.0561                 1.1051                 1.0360
 Frc consts  --     5.4833                 5.8118                 5.7306
 IR Inten    --    60.4780                56.8183                 8.0737

                    64                     65                     66
                     A                      A                      A
 Frequencies --  3087.4690              3135.0014              3141.6101
 Red. masses --     1.0634                 1.1028                 1.1008
 Frc consts  --     5.9726                 6.3859                 6.4010
 IR Inten    --    36.0674                12.8198                 4.3324

                    67                     68                     69
                     A                      A                      A
 Frequencies --  3148.8591              3218.1031              3218.7425
 Red. masses --     1.1019                 1.0918                 1.0902
 Frc consts  --     6.4371                 6.6621                 6.6547
 IR Inten    --     9.6712                 1.5924                 1.4174

                    70                     71                     72
                     A                      A                      A
 Frequencies --  3240.9428              3619.9033              3768.5256
 Red. masses --     1.0924                 1.0775                 1.0666
 Frc consts  --     6.7604                 8.3187                 8.9246
 IR Inten    --     2.1771                13.4499                27.3310

 - Thermochemistry -
 -------------------
 Temperature   298.150 Kelvin.  Pressure   1.00000 Atm.
 Atom     1 has atomic number  6 and mass  12.00000

 Molecular mass:   213.05566 amu.
 Principal axes and moments of inertia in atomic units:
                           1         2         3
     Eigenvalues --  3124.838554014.270726652.28684
           X            0.99834  -0.05612   0.01310
           Y            0.05617   0.99841  -0.00363
           Z           -0.01288   0.00436   0.99991
 This molecule is an asymmetric top.
 Rotational symmetry number  1.
 Warning -- assumption of classical behavior for rotation
           may cause significant error
 Rotational temperatures (Kelvin)      0.02772     0.02158     0.01302
 Rotational constants (GHZ):           0.57755     0.44958     0.27130
 Zero-point vibrational energy     545013.6 (Joules/Mol)
                                  130.26137 (Kcal/Mol)
 Warning -- explicit consideration of  22 degrees of freedom as
           vibrations may cause significant error
 Vibrational temperatures:     25.23    55.13    75.32    90.77   101.94
          (Kelvin)            168.45   231.48   250.94   279.70   352.09
                              408.25   434.34   470.89   497.40   568.29
                              631.61   651.13   690.00   748.57   772.77
                              880.18   885.13   935.49   948.78  1063.92
                             1122.15  1200.22  1242.67  1288.62  1345.27
                             1392.66  1440.00  1486.17  1512.75  1536.44
                             1562.63  1584.34  1614.60  1653.68  1728.18
                             1739.88  1810.94  1820.88  1839.76  1849.68
                             1912.01  1948.30  2012.71  2051.84  2079.91
                             2114.87  2158.35  2177.81  2181.02  2201.47
                             2222.44  2235.18  2341.28  2377.10  2560.43
                             4271.12  4298.47  4408.57  4442.17  4510.56
                             4520.07  4530.50  4630.13  4631.05  4662.99
                             5208.23  5422.06

 Zero-point correction=                           0.207585 (Hartree/Particle)
 Thermal correction to Energy=                    0.222122
 Thermal correction to Enthalpy=                  0.223067
 Thermal correction to Gibbs Free Energy=         0.163274
 Sum of electronic and zero-point Energies=          -1053.480122
 Sum of electronic and thermal Energies=             -1053.465585
 Sum of electronic and thermal Enthalpies=           -1053.464640
 Sum of electronic and thermal Free Energies=        -1053.524433

                     E (Thermal)             CV                S
                      KCal/Mol        Cal/Mol-Kelvin    Cal/Mol-Kelvin
 Total                  139.384             52.079            125.845
 Electronic               0.000              0.000              0.000
 Translational            0.889              2.981             41.973
 Rotational               0.889              2.981             32.790
 Vibrational            137.606             46.118             51.083
 Vibration     1          0.593              1.986              6.896
 Vibration     2          0.594              1.982              5.344
 Vibration     3          0.596              1.977              4.726
 Vibration     4          0.597              1.972              4.358
 Vibration     5          0.598              1.968              4.129
 Vibration     6          0.608              1.935              3.148
 Vibration     7          0.622              1.890              2.539
 Vibration     8          0.627              1.874              2.387
 Vibration     9          0.635              1.848              2.185
 Vibration    10          0.660              1.772              1.768
 Vibration    11          0.682              1.704              1.511
 Vibration    12          0.694              1.670              1.406
 Vibration    13          0.711              1.621              1.273
 Vibration    14          0.724              1.584              1.186
 Vibration    15          0.762              1.481              0.981
 Vibration    16          0.799              1.385              0.830
 Vibration    17          0.811              1.355              0.788
 Vibration    18          0.836              1.295              0.711
 Vibration    19          0.875              1.205              0.609
 Vibration    20          0.892              1.168              0.572
 Vibration    21          0.971              1.007              0.430
 Vibration    22          0.975              1.000              0.424

 Optimization completed.
    -- Stationary point found.
 Normal termination of Gaussian 09 at Fri Feb 16 22:49:04 2018.
