 Gaussian 09, Revision C.01,
 Gaussian 09:  AM64L-G09RevC.01 23-Sep-2011

 ----------------------------------------------------------------------
 #HF/6-31G* Geom=AllCheck Guess=Read Pop=(MK,ReadRadii) Integral=(Grid=
 UltraFine) iop(6/33=2)
 ----------------------------------------------------------------------

 Structure from the checkpoint file:  frag51-conf2.chk
 -----------------------------
 Optimization for frag51-conf2
 -----------------------------
 Charge =  0 Multiplicity = 1

                         Standard orientation:
 ---------------------------------------------------------------------
 Center     Atomic      Atomic             Coordinates (Angstroms)
 Number     Number       Type             X           Y           Z
 ---------------------------------------------------------------------
      1          6           0       -2.423089    0.631321    0.322438
      2          6           0       -2.529660   -0.756750    0.385665
      3          6           0       -0.253812   -0.943982   -0.424171
      4          6           0       -1.243456    1.250716   -0.104343
      5          6           0       -0.148097    0.451838   -0.482507
      6          6           0       -1.436800   -1.533634    0.009273
      7          6           0        3.166118   -0.044661    0.056504
      8          6           0        4.120061   -0.064396    1.241012
      9          6           0        1.178495    1.042003   -0.939488
     10          6           0       -1.169663    2.765589   -0.169786
     11          7           0        2.231563    0.958660    0.070572
     12          8           0        3.240043   -0.867342   -0.848962
     13          8           0       -2.346446    3.325977    0.391820
     14         17           0       -1.555159   -3.289259    0.077608
     15          1           0       -3.263803    1.250685    0.611568
     16          1           0       -3.447932   -1.228204    0.719475
     17          1           0        0.592807   -1.557402   -0.716376
     18          1           0        4.029675    0.807953    1.895967
     19          1           0        3.934796   -0.969418    1.829149
     20          1           0        5.144605   -0.124255    0.863685
     21          1           0        1.555967    0.484730   -1.799840
     22          1           0        1.070099    2.086820   -1.244947
     23          1           0       -0.276045    3.120976    0.371102
     24          1           0       -1.049657    3.084514   -1.219099
     25          1           0        2.129333    1.509312    0.911620
     26          1           0       -2.312431    4.283712    0.253901
 ---------------------------------------------------------------------

 SCF Done:  E(RHF) =  -1049.32710702     A.U. after   14 cycles

 The electronic state is 1-A.
 Alpha  occ. eigenvalues -- -104.81898 -20.58235 -20.52702 -15.59770 -11.36079
 Alpha  occ. eigenvalues --  -11.30454 -11.29999 -11.27971 -11.25492 -11.25379
 Alpha  occ. eigenvalues --  -11.24704 -11.24468 -11.24354 -11.24079 -10.55198
 Alpha  occ. eigenvalues --   -8.02135  -8.01806  -8.01804  -1.37886  -1.37724
 Alpha  occ. eigenvalues --   -1.23597  -1.18101  -1.11878  -1.04895  -1.02106
 Alpha  occ. eigenvalues --   -1.00772  -0.94078  -0.91211  -0.82904  -0.80033
 Alpha  occ. eigenvalues --   -0.78200  -0.72082  -0.69809  -0.67652  -0.65757
 Alpha  occ. eigenvalues --   -0.65084  -0.64002  -0.63140  -0.61338  -0.59067
 Alpha  occ. eigenvalues --   -0.58520  -0.58259  -0.56361  -0.55469  -0.53770
 Alpha  occ. eigenvalues --   -0.52827  -0.51776  -0.50053  -0.48858  -0.47628
 Alpha  occ. eigenvalues --   -0.44892  -0.44555  -0.42398  -0.39570  -0.33732
 Alpha  occ. eigenvalues --   -0.32388
 Alpha virt. eigenvalues --    0.12171   0.13377   0.19031   0.19679   0.20525
 Alpha virt. eigenvalues --    0.21191   0.24634   0.26974   0.27934   0.28864
 Alpha virt. eigenvalues --    0.29963   0.31642   0.32594   0.33300   0.33668

 Mulliken atomic charges:
              1
     1  C   -0.200198
     2  C   -0.181619
     3  C   -0.206946
     4  C   -0.051383
     5  C    0.001779
     6  C   -0.134857
     7  C    0.763797
     8  C   -0.577639
     9  C   -0.176204
    10  C    0.025518
    11  N   -0.790905
    12  O   -0.627807
    13  O   -0.750018
    14  Cl  -0.009777
    15  H    0.251915
    16  H    0.230070
    17  H    0.269076
    18  H    0.168354
    19  H    0.210585
    20  H    0.212910
    21  H    0.247856
    22  H    0.185997
    23  H    0.145747
    24  H    0.162278
    25  H    0.383653
    26  H    0.447816
 Sum of Mulliken atomic charges =   0.00000

 Dipole moment (field-independent basis, Debye):
    X=              0.5028    Y=              5.9130    Z=              1.8595  Tot=              6.2188
 Quadrupole moment (field-independent basis, Debye-Ang):
   XX=            -90.9627   YY=            -82.3676   ZZ=            -90.6956
   XY=              3.4169   XZ=              9.3125   YZ=             -3.6060

 Normal termination of Gaussian 09 at Sat Feb 17 21:06:50 2018.
