 Gaussian 09, Revision C.01,
 Gaussian 09:  AM64L-G09RevC.01 23-Sep-2011

 ----------------------------------------------------------------------
 #HF/6-31G* Geom=AllCheck Guess=Read Pop=(MK,ReadRadii) Integral=(Grid=
 UltraFine) iop(6/33=2)
 ----------------------------------------------------------------------

 Structure from the checkpoint file:  frag9-conf0.chk
 ----------------------------
 Optimization for frag9-conf0
 ----------------------------
 Charge =  0 Multiplicity = 1

                         Standard orientation:
 ---------------------------------------------------------------------
 Center     Atomic      Atomic             Coordinates (Angstroms)
 Number     Number       Type             X           Y           Z
 ---------------------------------------------------------------------
      1          6           0        3.225141   -0.735964    0.413446
      2          6           0        2.144044   -1.526455    0.011814
      3          6           0        3.098893    0.652809    0.425931
      4          6           0        0.944047   -0.931454   -0.373454
      5          6           0        1.894472    1.247507    0.040902
      6          6           0        0.807241    0.464926   -0.360688
      7          6           0       -2.516448   -0.123650    0.005335
      8          6           0       -3.519437   -0.293261    1.137493
      9          6           0       -0.507513    1.104879   -0.767389
     10          7           0       -1.592815    0.871070    0.183190
     11          8           0       -2.550123   -0.828150   -0.997806
     12          1           0        4.160950   -1.201767    0.710927
     13          1           0        2.239557   -2.609088   -0.006401
     14          1           0        3.935468    1.274833    0.733733
     15          1           0        0.103268   -1.542070   -0.692329
     16          1           0        1.801428    2.331946    0.048520
     17          1           0       -4.528975   -0.258713    0.717993
     18          1           0       -3.385420   -1.284218    1.583467
     19          1           0       -3.433448    0.463977    1.923212
     20          1           0       -0.378819    2.186413   -0.889270
     21          1           0       -0.856511    0.695440   -1.718729
     22          1           0       -1.529438    1.314938    1.088657
 ---------------------------------------------------------------------

 SCF Done:  E(RHF) =  -476.551165913     A.U. after   13 cycles

 The electronic state is 1-A.
 Alpha  occ. eigenvalues --  -20.52042 -15.59007 -11.35463 -11.26910 -11.24003
 Alpha  occ. eigenvalues --  -11.23944 -11.23637 -11.23530 -11.23461 -11.23359
 Alpha  occ. eigenvalues --  -11.22967  -1.37203  -1.22798  -1.14604  -1.04222
 Alpha  occ. eigenvalues --   -1.00904  -0.99912  -0.92086  -0.82356  -0.80310
 Alpha  occ. eigenvalues --   -0.78281  -0.70036  -0.68206  -0.64871  -0.63987
 Alpha  occ. eigenvalues --   -0.62199  -0.61121  -0.58152  -0.57724  -0.57455
 Alpha  occ. eigenvalues --   -0.55691  -0.53992  -0.51457  -0.49288  -0.48710
 Alpha  occ. eigenvalues --   -0.48329  -0.41819  -0.38852  -0.33160  -0.32439
 Alpha virt. eigenvalues --    0.13763   0.14468   0.19705   0.21749   0.24134
 Alpha virt. eigenvalues --    0.26334   0.28075   0.29565   0.31340   0.31785
 Alpha virt. eigenvalues --    0.32034   0.33544   0.34309   0.34798   0.35633

 Mulliken atomic charges:
              1
     1  C   -0.203580
     2  C   -0.198559
     3  C   -0.196876
     4  C   -0.225280
     5  C   -0.230948
     6  C    0.023704
     7  C    0.763035
     8  C   -0.575853
     9  C   -0.165341
    10  N   -0.789520
    11  O   -0.632502
    12  H    0.201212
    13  H    0.203972
    14  H    0.200793
    15  H    0.241615
    16  H    0.194923
    17  H    0.210558
    18  H    0.206272
    19  H    0.167740
    20  H    0.184307
    21  H    0.237811
    22  H    0.382517
 Sum of Mulliken atomic charges =   0.00000

 Dipole moment (field-independent basis, Debye):
    X=              0.7060    Y=              2.1103    Z=              3.0381  Tot=              3.7659
 Quadrupole moment (field-independent basis, Debye-Ang):
   XX=            -62.6631   YY=            -61.0829   ZZ=            -68.0427
   XY=             -4.3395   XZ=             -6.5032   YZ=             -1.3837

 Normal termination of Gaussian 09 at Sat Feb 17 20:56:32 2018.
