 Gaussian 09, Revision C.01,
 Gaussian 09:  AM64L-G09RevC.01 23-Sep-2011

 ----------------------------------------------------------------------
 #HF/6-31G* Geom=AllCheck Guess=Read Pop=(MK,ReadRadii) Integral=(Grid=
 UltraFine) iop(6/33=2)
 ----------------------------------------------------------------------

 Structure from the checkpoint file:  frag33-conf0.chk
 -----------------------------
 Optimization for frag33-conf0
 -----------------------------
 Charge =  0 Multiplicity = 1

                         Standard orientation:
 ---------------------------------------------------------------------
 Center     Atomic      Atomic             Coordinates (Angstroms)
 Number     Number       Type             X           Y           Z
 ---------------------------------------------------------------------
      1          6           0        1.372304   -0.845408   -0.580581
      2          6           0        0.964925    2.949005    1.244630
      3          6           0        2.928686    1.882690    0.045839
      4          6           0        2.715417   -2.784362   -0.002174
      5          6           0        0.929793   -2.126411    1.547208
      6          6           0       -3.440387   -1.446583   -0.234132
      7          6           0        0.532490    1.555599   -0.861990
      8          6           0        0.268459    0.177202   -0.227525
      9          6           0        1.520749    2.479028   -0.109846
     10          7           0       -0.985868   -0.459085   -0.720573
     11          7           0        1.675064   -1.819720    0.333774
     12          8           0        1.936432   -0.771932   -1.670615
     13          8           0       -3.081186    1.125727   -0.723585
     14          8           0       -2.142705    0.167932    1.445759
     15         16           0       -2.438650    0.030293    0.013875
     16          1           0        0.870049    2.122343    1.959796
     17          1           0        1.630843    3.692726    1.698164
     18          1           0       -0.025808    3.405090    1.135682
     19          1           0        2.931109    1.028572    0.735272
     20          1           0        3.327096    1.533801   -0.911843
     21          1           0        3.617274    2.630726    0.456515
     22          1           0        3.388147   -2.914081    0.853957
     23          1           0        3.272845   -2.414620   -0.861074
     24          1           0        2.279104   -3.761897   -0.250753
     25          1           0        0.548177   -3.155395    1.496096
     26          1           0        0.078602   -1.463606    1.686563
     27          1           0        1.582147   -2.053308    2.427374
     28          1           0       -4.422457   -1.235287    0.195240
     29          1           0       -3.535674   -1.638296   -1.304951
     30          1           0       -2.965747   -2.286545    0.273422
     31          1           0        0.893144    1.388538   -1.883195
     32          1           0       -0.430850    2.074870   -0.932012
     33          1           0        0.150425    0.284332    0.849243
     34          1           0        1.616300    3.371656   -0.745245
     35          1           0       -1.065653   -0.361046   -1.733710
 ---------------------------------------------------------------------

 SCF Done:  E(RHF) =  -1083.37665552     A.U. after   13 cycles

 The electronic state is 1-A.
 Alpha  occ. eigenvalues --  -92.22005 -20.56762 -20.56549 -20.52960 -15.62063
 Alpha  occ. eigenvalues --  -15.60005 -11.36026 -11.29362 -11.28763 -11.27276
 Alpha  occ. eigenvalues --  -11.25928 -11.23148 -11.22546 -11.21146 -11.20997
 Alpha  occ. eigenvalues --   -9.19163  -6.87744  -6.87720  -6.87638  -1.46061
 Alpha  occ. eigenvalues --   -1.38285  -1.34259  -1.24942  -1.23991  -1.09216
 Alpha  occ. eigenvalues --   -1.05221  -1.00223  -0.97454  -0.94675  -0.92475
 Alpha  occ. eigenvalues --   -0.88615  -0.83810  -0.77007  -0.75342  -0.72808
 Alpha  occ. eigenvalues --   -0.69472  -0.67776  -0.67611  -0.65499  -0.65223
 Alpha  occ. eigenvalues --   -0.63828  -0.61299  -0.60972  -0.60312  -0.59771
 Alpha  occ. eigenvalues --   -0.59065  -0.57304  -0.56197  -0.55808  -0.55201
 Alpha  occ. eigenvalues --   -0.53852  -0.53502  -0.51913  -0.51593  -0.50824
 Alpha  occ. eigenvalues --   -0.49685  -0.48582  -0.47183  -0.46301  -0.45743
 Alpha  occ. eigenvalues --   -0.45615  -0.43605  -0.40776  -0.37412
 Alpha virt. eigenvalues --    0.16856   0.19831   0.21440   0.22691   0.23877
 Alpha virt. eigenvalues --    0.24568   0.24878   0.26773   0.27289   0.28016
 Alpha virt. eigenvalues --    0.28902   0.29413   0.29641   0.30189   0.30355

 Mulliken atomic charges:
              1
     1  C    0.834249
     2  C   -0.480609
     3  C   -0.491944
     4  C   -0.293152
     5  C   -0.298172
     6  C   -0.704719
     7  C   -0.345494
     8  C   -0.122225
     9  C   -0.157222
    10  N   -0.892164
    11  N   -0.669985
    12  O   -0.641805
    13  O   -0.679779
    14  O   -0.707082
    15  S    1.612725
    16  H    0.153818
    17  H    0.162064
    18  H    0.173261
    19  H    0.144255
    20  H    0.190835
    21  H    0.160421
    22  H    0.166287
    23  H    0.234443
    24  H    0.163498
    25  H    0.170439
    26  H    0.218244
    27  H    0.176187
    28  H    0.237918
    29  H    0.222364
    30  H    0.231077
    31  H    0.205759
    32  H    0.196827
    33  H    0.256434
    34  H    0.167524
    35  H    0.405724
 Sum of Mulliken atomic charges =   0.00000

 Dipole moment (field-independent basis, Debye):
    X=             -0.1098    Y=             -3.9308    Z=              0.7558  Tot=              4.0043
 Quadrupole moment (field-independent basis, Debye-Ang):
   XX=           -101.5959   YY=            -94.5818   ZZ=           -106.4076
   XY=             11.3933   XZ=              9.3528   YZ=             -2.8035

 Normal termination of Gaussian 09 at Sat Feb 17 21:03:31 2018.
