 Gaussian 09, Revision C.01,
 Gaussian 09:  AM64L-G09RevC.01 23-Sep-2011

 ---------------------------------------------------------
 #B3LYP/6-31G* Integral=(Grid=UltraFine) freq Opt pop=none
 ---------------------------------------------------------

 99/9=1/99;
 -----------------------------
 Optimization for frag33-conf0
 -----------------------------
 Charge =  0 Multiplicity = 1

 SCF Done:  E(RB3LYP) =  -1088.30348917     A.U. after   15 cycles
 SCF Done:  E(RB3LYP) =  -1088.31078428     A.U. after   12 cycles
 SCF Done:  E(RB3LYP) =  -1088.31160736     A.U. after   15 cycles
 SCF Done:  E(RB3LYP) =  -1088.31222679     A.U. after   13 cycles
 SCF Done:  E(RB3LYP) =  -1088.31228161     A.U. after   13 cycles
 SCF Done:  E(RB3LYP) =  -1088.31290938     A.U. after   12 cycles
 SCF Done:  E(RB3LYP) =  -1088.31305715     A.U. after   11 cycles
 SCF Done:  E(RB3LYP) =  -1088.31299656     A.U. after   12 cycles
 SCF Done:  E(RB3LYP) =  -1088.31317759     A.U. after   12 cycles
 SCF Done:  E(RB3LYP) =  -1088.31323494     A.U. after   11 cycles
 SCF Done:  E(RB3LYP) =  -1088.31331456     A.U. after   10 cycles
 SCF Done:  E(RB3LYP) =  -1088.31331763     A.U. after    9 cycles
 SCF Done:  E(RB3LYP) =  -1088.31331918     A.U. after    8 cycles
 SCF Done:  E(RB3LYP) =  -1088.31332087     A.U. after    9 cycles
 SCF Done:  E(RB3LYP) =  -1088.31332243     A.U. after    9 cycles
 SCF Done:  E(RB3LYP) =  -1088.31332322     A.U. after    8 cycles
 SCF Done:  E(RB3LYP) =  -1088.31332347     A.U. after    7 cycles
 SCF Done:  E(RB3LYP) =  -1088.31332353     A.U. after    7 cycles
 SCF Done:  E(RB3LYP) =  -1088.31332355     A.U. after    7 cycles
 Optimization completed.
    -- Stationary point found.
 Normal termination of Gaussian 09 at Fri Feb 16 21:32:22 2018.

 --------------------------------------------------------------------
 #N Geom=AllCheck Guess=TCheck SCRF=Check GenChk RB3LYP/6-31G(d) Freq
 --------------------------------------------------------------------

 Structure from the checkpoint file:  frag33-conf0.chk
 -----------------------------
 Optimization for frag33-conf0
 -----------------------------
 Charge =  0 Multiplicity = 1

                         Standard orientation:
 ---------------------------------------------------------------------
 Center     Atomic      Atomic             Coordinates (Angstroms)
 Number     Number       Type             X           Y           Z
 ---------------------------------------------------------------------
      1          6           0        1.372304   -0.845408   -0.580581
      2          6           0        0.964925    2.949005    1.244630
      3          6           0        2.928686    1.882690    0.045839
      4          6           0        2.715417   -2.784362   -0.002174
      5          6           0        0.929793   -2.126411    1.547208
      6          6           0       -3.440387   -1.446583   -0.234132
      7          6           0        0.532490    1.555599   -0.861990
      8          6           0        0.268459    0.177202   -0.227525
      9          6           0        1.520749    2.479028   -0.109846
     10          7           0       -0.985868   -0.459085   -0.720573
     11          7           0        1.675064   -1.819720    0.333774
     12          8           0        1.936432   -0.771932   -1.670615
     13          8           0       -3.081186    1.125727   -0.723585
     14          8           0       -2.142705    0.167932    1.445759
     15         16           0       -2.438650    0.030293    0.013875
     16          1           0        0.870049    2.122343    1.959796
     17          1           0        1.630843    3.692726    1.698164
     18          1           0       -0.025808    3.405090    1.135682
     19          1           0        2.931109    1.028572    0.735272
     20          1           0        3.327096    1.533801   -0.911843
     21          1           0        3.617274    2.630726    0.456515
     22          1           0        3.388147   -2.914081    0.853957
     23          1           0        3.272845   -2.414620   -0.861074
     24          1           0        2.279104   -3.761897   -0.250753
     25          1           0        0.548177   -3.155395    1.496096
     26          1           0        0.078602   -1.463606    1.686563
     27          1           0        1.582147   -2.053308    2.427374
     28          1           0       -4.422457   -1.235287    0.195240
     29          1           0       -3.535674   -1.638296   -1.304951
     30          1           0       -2.965747   -2.286545    0.273422
     31          1           0        0.893144    1.388538   -1.883195
     32          1           0       -0.430850    2.074870   -0.932012
     33          1           0        0.150425    0.284332    0.849243
     34          1           0        1.616300    3.371656   -0.745245
     35          1           0       -1.065653   -0.361046   -1.733710
 ---------------------------------------------------------------------

 SCF Done:  E(RB3LYP) =  -1088.31332355     A.U. after    1 cycles

 Isotropic polarizability for W=    0.000000      133.37 Bohr**3.
 End of Minotr Frequency-dependent properties file   721 does not exist.

                     1                      2                      3
                     A                      A                      A
 Frequencies --    22.4676                31.1264                40.6315
 Red. masses --     3.2273                 5.5996                 3.0529
 Frc consts  --     0.0010                 0.0032                 0.0030
 IR Inten    --     1.8801                 6.1305                 0.4861

                     4                      5                      6
                     A                      A                      A
 Frequencies --    53.5488                73.2348                81.9899
 Red. masses --     3.4144                 2.2758                 3.2906
 Frc consts  --     0.0058                 0.0072                 0.0130
 IR Inten    --     2.4055                 0.4057                 2.4387

                     7                      8                      9
                     A                      A                      A
 Frequencies --    96.3323               134.1536               149.1957
 Red. masses --     2.0291                 1.0988                 2.9792
 Frc consts  --     0.0111                 0.0117                 0.0391
 IR Inten    --     1.1944                 0.6504                 5.1015

                    10                     11                     12
                     A                      A                      A
 Frequencies --   171.8472               180.1169               211.1928
 Red. masses --     4.0720                 2.6447                 1.9353
 Frc consts  --     0.0709                 0.0506                 0.0509
 IR Inten    --     1.5844                 3.1527                 0.5411

                    13                     14                     15
                     A                      A                      A
 Frequencies --   217.5301               229.3297               254.0394
 Red. masses --     1.5003                 1.2340                 2.7310
 Frc consts  --     0.0418                 0.0382                 0.1038
 IR Inten    --     2.3464                 0.1204                 1.2989

                    16                     17                     18
                     A                      A                      A
 Frequencies --   263.4339               275.6322               301.2944
 Red. masses --     2.8939                 1.0711                 3.8936
 Frc consts  --     0.1183                 0.0479                 0.2082
 IR Inten    --     3.4955                 0.3497                 2.2564

                    19                     20                     21
                     A                      A                      A
 Frequencies --   324.1425               357.3279               386.0567
 Red. masses --     3.1707                 2.6187                 3.2513
 Frc consts  --     0.1963                 0.1970                 0.2855
 IR Inten    --     5.4135                 6.1184                13.9579

                    22                     23                     24
                     A                      A                      A
 Frequencies --   389.9577               409.4927               419.0699
 Red. masses --     2.5250                 2.3313                 2.6340
 Frc consts  --     0.2262                 0.2303                 0.2725
 IR Inten    --     5.2719                 5.5337                 8.1146

                    25                     26                     27
                     A                      A                      A
 Frequencies --   471.4774               492.2253               516.9806
 Red. masses --     4.4919                 7.0054                 4.1340
 Frc consts  --     0.5883                 1.0000                 0.6510
 IR Inten    --    11.8270                25.0301                16.8239

                    28                     29                     30
                     A                      A                      A
 Frequencies --   568.2874               621.9470               635.8903
 Red. masses --     2.9811                 4.2389                 3.9708
 Frc consts  --     0.5672                 0.9661                 0.9460
 IR Inten    --     5.8346                29.0151                70.7997

                    31                     32                     33
                     A                      A                      A
 Frequencies --   737.8035               764.7727               783.2208
 Red. masses --     4.5168                 2.8586                 3.5040
 Frc consts  --     1.4487                 0.9851                 1.2664
 IR Inten    --    14.8633                16.7874                47.0225

                    34                     35                     36
                     A                      A                      A
 Frequencies --   801.4149               880.0981               928.1727
 Red. masses --     3.2994                 2.4834                 1.6925
 Frc consts  --     1.2485                 1.1333                 0.8591
 IR Inten    --     7.5054               139.4604                 3.9607

                    37                     38                     39
                     A                      A                      A
 Frequencies --   948.1675               974.3460               982.8830
 Red. masses --     1.5894                 1.5500                 1.7748
 Frc consts  --     0.8419                 0.8670                 1.0102
 IR Inten    --     0.7100                 2.5194                12.2683

                    40                     41                     42
                     A                      A                      A
 Frequencies --   984.1677               994.9506               998.6146
 Red. masses --     2.2311                 1.6336                 1.4981
 Frc consts  --     1.2732                 0.9528                 0.8802
 IR Inten    --    34.9046                49.9750                 7.2433

                    43                     44                     45
                     A                      A                      A
 Frequencies --  1031.1362              1060.1859              1089.6385
 Red. masses --     2.0457                 3.5523                 1.4115
 Frc consts  --     1.2815                 2.3525                 0.9874
 IR Inten    --    27.3477                36.0140                 8.5643

                    46                     47                     48
                     A                      A                      A
 Frequencies --  1125.1694              1138.2099              1140.7741
 Red. masses --     3.4908                 1.5052                 1.5694
 Frc consts  --     2.6038                 1.1489                 1.2034
 IR Inten    --   125.1858                23.8731                27.4652

                    49                     50                     51
                     A                      A                      A
 Frequencies --  1148.6898              1176.8344              1186.3784
 Red. masses --     2.0107                 1.9293                 1.4188
 Frc consts  --     1.5632                 1.5743                 1.1766
 IR Inten    --    20.1182                42.8838                17.2238

                    52                     53                     54
                     A                      A                      A
 Frequencies --  1218.3584              1270.9563              1280.0879
 Red. masses --     1.9058                 1.3684                 2.2994
 Frc consts  --     1.6668                 1.3024                 2.2200
 IR Inten    --     4.5329                 2.1039                41.9085

                    55                     56                     57
                     A                      A                      A
 Frequencies --  1289.0852              1323.2689              1355.7516
 Red. masses --     1.9781                 3.9591                 1.5269
 Frc consts  --     1.9367                 4.0846                 1.6536
 IR Inten    --    29.5457               165.4280                 2.0499

                    58                     59                     60
                     A                      A                      A
 Frequencies --  1372.7098              1381.5725              1397.8656
 Red. masses --     1.4095                 1.2145                 1.4203
 Frc consts  --     1.5648                 1.3658                 1.6352
 IR Inten    --     9.0702                11.6921                16.1839

                    61                     62                     63
                     A                      A                      A
 Frequencies --  1412.9836              1433.7335              1447.7176
 Red. masses --     1.3286                 1.2535                 1.4495
 Frc consts  --     1.5628                 1.5182                 1.7900
 IR Inten    --    15.1695                 8.1592                62.1094

                    64                     65                     66
                     A                      A                      A
 Frequencies --  1452.1503              1456.5241              1462.4600
 Red. masses --     1.2854                 1.2328                 1.6403
 Frc consts  --     1.5970                 1.5410                 2.0670
 IR Inten    --    12.7169                22.5962                65.8738

                    67                     68                     69
                     A                      A                      A
 Frequencies --  1484.0283              1486.7978              1502.7484
 Red. masses --     1.0492                 1.0653                 1.1613
 Frc consts  --     1.3614                 1.3874                 1.5451
 IR Inten    --     5.0674                 2.4855                 9.6959

                    70                     71                     72
                     A                      A                      A
 Frequencies --  1512.2539              1515.0780              1517.1336
 Red. masses --     1.0830                 1.0450                 1.0483
 Frc consts  --     1.4593                 1.4133                 1.4216
 IR Inten    --     8.2329                 0.9829                 0.6144

                    73                     74                     75
                     A                      A                      A
 Frequencies --  1528.6510              1530.3540              1535.4314
 Red. masses --     1.0544                 1.0768                 1.0518
 Frc consts  --     1.4517                 1.4858                 1.4609
 IR Inten    --     2.4564                10.9686                14.5372

                    76                     77                     78
                     A                      A                      A
 Frequencies --  1536.1732              1541.2892              1565.9358
 Red. masses --     1.0510                 1.0509                 1.2191
 Frc consts  --     1.4613                 1.4709                 1.7613
 IR Inten    --    21.2096                 5.7835                32.7691

                    79                     80                     81
                     A                      A                      A
 Frequencies --  1748.1135              3016.9737              3028.3412
 Red. masses --     9.1077                 1.0836                 1.0417
 Frc consts  --    16.3983                 5.8110                 5.6288
 IR Inten    --   247.0052                20.4447                22.9873

                    82                     83                     84
                     A                      A                      A
 Frequencies --  3035.4051              3039.8673              3044.8413
 Red. masses --     1.0437                 1.0365                 1.0374
 Frc consts  --     5.6659                 5.6435                 5.6667
 IR Inten    --    95.8915                18.8934                27.1938

                    85                     86                     87
                     A                      A                      A
 Frequencies --  3060.1952              3073.4744              3087.5411
 Red. masses --     1.0609                 1.1035                 1.0999
 Frc consts  --     5.8538                 6.1418                 6.1775
 IR Inten    --    11.8742                36.7929                27.7636

                    88                     89                     90
                     A                      A                      A
 Frequencies --  3088.1322              3097.4922              3103.8660
 Red. masses --     1.0298                 1.1011                 1.1030
 Frc consts  --     5.7863                 6.2246                 6.2610
 IR Inten    --     0.4700                 8.6105                10.4664

                    91                     92                     93
                     A                      A                      A
 Frequencies --  3105.1146              3113.6306              3130.8361
 Red. masses --     1.1006                 1.1025                 1.1009
 Frc consts  --     6.2522                 6.2975                 6.3581
 IR Inten    --    91.1519                30.9717                19.0164

                    94                     95                     96
                     A                      A                      A
 Frequencies --  3161.3675              3182.8769              3195.5675
 Red. masses --     1.0854                 1.1063                 1.0965
 Frc consts  --     6.3914                 6.6032                 6.5970
 IR Inten    --     5.7770                 0.6354                 1.1211

                    97                     98                     99
                     A                      A                      A
 Frequencies --  3201.7454              3202.7794              3494.2811
 Red. masses --     1.1079                 1.0930                 1.0743
 Frc consts  --     6.6916                 6.6057                 7.7285
 IR Inten    --     0.7150                 1.7790                17.6383

 - Thermochemistry -
 -------------------
 Temperature   298.150 Kelvin.  Pressure   1.00000 Atm.
 Atom     1 has atomic number  6 and mass  12.00000

 Molecular mass:   236.11946 amu.
 Principal axes and moments of inertia in atomic units:
                           1         2         3
     Eigenvalues --  2901.331124429.951615977.15331
           X            0.99900   0.04237   0.01401
           Y           -0.04233   0.99910  -0.00329
           Z           -0.01414   0.00270   0.99990
 This molecule is an asymmetric top.
 Rotational symmetry number  1.
 Warning -- assumption of classical behavior for rotation
           may cause significant error
 Rotational temperatures (Kelvin)      0.02985     0.01955     0.01449
 Rotational constants (GHZ):           0.62204     0.40740     0.30194
 Zero-point vibrational energy     791204.9 (Joules/Mol)
                                  189.10250 (Kcal/Mol)
 Warning -- explicit consideration of  28 degrees of freedom as
           vibrations may cause significant error
 Vibrational temperatures:     32.33    44.78    58.46    77.04   105.37
          (Kelvin)            117.96   138.60   193.02   214.66   247.25
                              259.15   303.86   312.98   329.95   365.51
                              379.02   396.57   433.49   466.37   514.11
                              555.45   561.06   589.17   602.95   678.35
                              708.20   743.82   817.64   894.84   914.90
                             1061.53  1100.34  1126.88  1153.06  1266.26
                             1335.43  1364.20  1401.86  1414.15  1416.00
                             1431.51  1436.78  1483.57  1525.37  1567.74
                             1618.87  1637.63  1641.32  1652.71  1693.20
                             1706.93  1752.94  1828.62  1841.76  1854.70
                             1903.89  1950.62  1975.02  1987.77  2011.21
                             2032.97  2062.82  2082.94  2089.32  2095.61
                             2104.15  2135.18  2139.17  2162.12  2175.79
                             2179.86  2182.81  2199.39  2201.84  2209.14
                             2210.21  2217.57  2253.03  2515.14  4340.75
                             4357.10  4367.27  4373.69  4380.84  4402.93
                             4422.04  4442.28  4443.13  4456.59  4465.77
                             4467.56  4479.81  4504.57  4548.50  4579.44
                             4597.70  4606.59  4608.08  5027.48

 Zero-point correction=                           0.301354 (Hartree/Particle)
 Thermal correction to Energy=                    0.320089
 Thermal correction to Enthalpy=                  0.321033
 Thermal correction to Gibbs Free Energy=         0.252897
 Sum of electronic and zero-point Energies=          -1088.011970
 Sum of electronic and thermal Energies=             -1087.993235
 Sum of electronic and thermal Enthalpies=           -1087.992290
 Sum of electronic and thermal Free Energies=        -1088.060427

                     E (Thermal)             CV                S
                      KCal/Mol        Cal/Mol-Kelvin    Cal/Mol-Kelvin
 Total                  200.859             66.788            143.405
 Electronic               0.000              0.000              0.000
 Translational            0.889              2.981             42.279
 Rotational               0.889              2.981             32.707
 Vibrational            199.081             60.827             68.419
 Vibration     1          0.593              1.985              6.403
 Vibration     2          0.594              1.983              5.756
 Vibration     3          0.594              1.981              5.228
 Vibration     4          0.596              1.976              4.682
 Vibration     5          0.599              1.967              4.064
 Vibration     6          0.600              1.961              3.843
 Vibration     7          0.603              1.952              3.527
 Vibration     8          0.613              1.919              2.886
 Vibration     9          0.618              1.904              2.682
 Vibration    10          0.626              1.877              2.415
 Vibration    11          0.629              1.867              2.327
 Vibration    12          0.643              1.824              2.033
 Vibration    13          0.646              1.814              1.980
 Vibration    14          0.652              1.796              1.884
 Vibration    15          0.665              1.756              1.702
 Vibration    16          0.670              1.740              1.639
 Vibration    17          0.677              1.718              1.561
 Vibration    18          0.693              1.671              1.410
 Vibration    19          0.709              1.627              1.289
 Vibration    20          0.732              1.560              1.134
 Vibration    21          0.755              1.500              1.015
 Vibration    22          0.758              1.492              1.000
 Vibration    23          0.774              1.450              0.928
 Vibration    24          0.782              1.429              0.895
 Vibration    25          0.828              1.313              0.733
 Vibration    26          0.848              1.267              0.678
 Vibration    27          0.872              1.212              0.617
 Vibration    28          0.924              1.100              0.508

 Optimization completed.
    -- Stationary point found.
 Normal termination of Gaussian 09 at Fri Feb 16 22:22:10 2018.
