 Gaussian 09, Revision C.01,
 Gaussian 09:  AM64L-G09RevC.01 23-Sep-2011

 ---------------------------------------------------------
 #B3LYP/6-31G* Integral=(Grid=UltraFine) freq Opt pop=none
 ---------------------------------------------------------

 99/9=1/99;
 -----------------------------
 Optimization for frag10-conf0
 -----------------------------
 Charge =  1 Multiplicity = 1

 SCF Done:  E(RB3LYP) =  -422.170530447     A.U. after   14 cycles
 SCF Done:  E(RB3LYP) =  -422.178209648     A.U. after   13 cycles
 SCF Done:  E(RB3LYP) =  -422.180029880     A.U. after   12 cycles
 SCF Done:  E(RB3LYP) =  -422.179615516     A.U. after   12 cycles
 SCF Done:  E(RB3LYP) =  -422.180634970     A.U. after   12 cycles
 SCF Done:  E(RB3LYP) =  -422.181158206     A.U. after   12 cycles
 SCF Done:  E(RB3LYP) =  -422.180960226     A.U. after   12 cycles
 SCF Done:  E(RB3LYP) =  -422.181516451     A.U. after   11 cycles
 SCF Done:  E(RB3LYP) =  -422.181774671     A.U. after   11 cycles
 SCF Done:  E(RB3LYP) =  -422.181871001     A.U. after   11 cycles
 SCF Done:  E(RB3LYP) =  -422.181906042     A.U. after    9 cycles
 SCF Done:  E(RB3LYP) =  -422.181922773     A.U. after    9 cycles
 SCF Done:  E(RB3LYP) =  -422.181940131     A.U. after   11 cycles
 SCF Done:  E(RB3LYP) =  -422.181942721     A.U. after    8 cycles
 SCF Done:  E(RB3LYP) =  -422.181942889     A.U. after    7 cycles
 SCF Done:  E(RB3LYP) =  -422.181942971     A.U. after    7 cycles
 SCF Done:  E(RB3LYP) =  -422.181943037     A.U. after    7 cycles
 SCF Done:  E(RB3LYP) =  -422.181943118     A.U. after    7 cycles
 SCF Done:  E(RB3LYP) =  -422.181943178     A.U. after    7 cycles
 Optimization completed.
    -- Stationary point found.
 Normal termination of Gaussian 09 at Fri Feb 16 18:12:01 2018.

 --------------------------------------------------------------------
 #N Geom=AllCheck Guess=TCheck SCRF=Check GenChk RB3LYP/6-31G(d) Freq
 --------------------------------------------------------------------

 Structure from the checkpoint file:  frag10-conf0.chk
 -----------------------------
 Optimization for frag10-conf0
 -----------------------------
 Charge =  1 Multiplicity = 1

                         Standard orientation:
 ---------------------------------------------------------------------
 Center     Atomic      Atomic             Coordinates (Angstroms)
 Number     Number       Type             X           Y           Z
 ---------------------------------------------------------------------
      1          6           0        0.307388   -0.635785   -0.084276
      2          6           0       -1.294695    2.110784   -0.625863
      3          6           0        2.668156   -0.340858   -0.523367
      4          6           0        1.556701    1.222429    1.034884
      5          6           0       -1.872385    0.706480   -0.423459
      6          6           0       -1.060890   -0.201860    0.523687
      7          7           0        1.419812    0.077536    0.133145
      8          7           0       -1.788163   -1.534834    0.618462
      9          8           0        0.258861   -1.659130   -0.788232
     10          1           0       -0.305187    2.081927   -1.090992
     11          1           0       -1.226275    2.663394    0.316932
     12          1           0       -1.952969    2.676873   -1.290436
     13          1           0        3.084060    0.504823   -1.079458
     14          1           0        2.459591   -1.164827   -1.202170
     15          1           0        3.392241   -0.659757    0.233745
     16          1           0        2.302027    0.990969    1.803306
     17          1           0        0.617291    1.472320    1.523913
     18          1           0        1.896520    2.099104    0.474474
     19          1           0       -2.887900    0.794796   -0.013731
     20          1           0       -1.951774    0.196705   -1.392265
     21          1           0       -1.000083    0.212483    1.530369
     22          1           0       -2.796485   -1.453295    0.457043
     23          1           0       -1.635832   -2.015917    1.510852
     24          1           0       -1.313307   -2.092607   -0.146615
 ---------------------------------------------------------------------

 SCF Done:  E(RB3LYP) =  -422.181943178     A.U. after    1 cycles

 Isotropic polarizability for W=    0.000000       79.06 Bohr**3.
 End of Minotr Frequency-dependent properties file   721 does not exist.

                     1                      2                      3
                     A                      A                      A
 Frequencies --    77.0676                81.7595                99.5252
 Red. masses --     2.5452                 2.0821                 1.3980
 Frc consts  --     0.0089                 0.0082                 0.0082
 IR Inten    --     3.4096                 5.6507                 2.4578

                     4                      5                      6
                     A                      A                      A
 Frequencies --   118.7573               137.3171               201.5447
 Red. masses --     1.5354                 1.4914                 2.4311
 Frc consts  --     0.0128                 0.0166                 0.0582
 IR Inten    --     0.2379                 0.9599                 5.2403

                     7                      8                      9
                     A                      A                      A
 Frequencies --   243.0630               264.0121               279.4827
 Red. masses --     2.1983                 2.1461                 1.4371
 Frc consts  --     0.0765                 0.0881                 0.0661
 IR Inten    --     5.7323                 2.8667                 3.0435

                    10                     11                     12
                     A                      A                      A
 Frequencies --   310.7508               347.3974               352.8650
 Red. masses --     1.1544                 2.4833                 2.7484
 Frc consts  --     0.0657                 0.1766                 0.2016
 IR Inten    --     2.8370                 2.1837                11.0946

                    13                     14                     15
                     A                      A                      A
 Frequencies --   430.8730               436.1658               503.6131
 Red. masses --     2.9304                 3.3783                 3.6184
 Frc consts  --     0.3205                 0.3787                 0.5407
 IR Inten    --    39.8462                46.0186                39.7540

                    16                     17                     18
                     A                      A                      A
 Frequencies --   620.4872               718.3972               742.6455
 Red. masses --     4.5934                 4.8411                 2.5022
 Frc consts  --     1.0420                 1.4721                 0.8131
 IR Inten    --     8.3352                 5.8251                22.7269

                    19                     20                     21
                     A                      A                      A
 Frequencies --   843.5824               866.9633               943.6250
 Red. masses --     1.5498                 1.9412                 3.4638
 Frc consts  --     0.6498                 0.8597                 1.8172
 IR Inten    --     4.5965                 2.8604                 2.5972

                    22                     23                     24
                     A                      A                      A
 Frequencies --   968.9634              1030.3055              1045.1347
 Red. masses --     3.3329                 1.2050                 2.0169
 Frc consts  --     1.8437                 0.7536                 1.2980
 IR Inten    --    17.3388                21.2321                23.0165

                    25                     26                     27
                     A                      A                      A
 Frequencies --  1080.4687              1100.4053              1124.3240
 Red. masses --     1.4564                 1.7464                 1.3752
 Frc consts  --     1.0018                 1.2460                 1.0242
 IR Inten    --    12.7140                31.7761                19.4405

                    28                     29                     30
                     A                      A                      A
 Frequencies --  1131.1885              1177.5259              1183.8575
 Red. masses --     1.2266                 1.8182                 1.3779
 Frc consts  --     0.9248                 1.4853                 1.1378
 IR Inten    --     1.0224                52.6407                 1.9207

                    31                     32                     33
                     A                      A                      A
 Frequencies --  1207.8371              1263.8696              1295.1477
 Red. masses --     1.9008                 3.8909                 1.4965
 Frc consts  --     1.6338                 3.6619                 1.4790
 IR Inten    --     8.2049                42.8954                 3.7507

                    34                     35                     36
                     A                      A                      A
 Frequencies --  1361.2181              1374.4828              1398.4407
 Red. masses --     1.2181                 1.2974                 1.4173
 Frc consts  --     1.3298                 1.4441                 1.6331
 IR Inten    --    11.9795                 0.6787                18.7893

                    37                     38                     39
                     A                      A                      A
 Frequencies --  1442.4744              1450.4980              1463.8484
 Red. masses --     1.2371                 1.2175                 1.1501
 Frc consts  --     1.5167                 1.5092                 1.4520
 IR Inten    --   467.6429                 3.5613                 8.9597

                    40                     41                     42
                     A                      A                      A
 Frequencies --  1475.0418              1500.3129              1505.7000
 Red. masses --     2.0786                 1.1026                 1.0922
 Frc consts  --     2.6646                 1.4622                 1.4589
 IR Inten    --    18.9273                14.0065                11.6028

                    43                     44                     45
                     A                      A                      A
 Frequencies --  1518.0564              1524.5648              1527.7320
 Red. masses --     1.0686                 1.0774                 1.0509
 Frc consts  --     1.4509                 1.4755                 1.4452
 IR Inten    --     4.9171                 6.1421                27.2056

                    46                     47                     48
                     A                      A                      A
 Frequencies --  1532.0584              1537.0285              1564.5407
 Red. masses --     1.0423                 1.0811                 1.4038
 Frc consts  --     1.4415                 1.5048                 2.0245
 IR Inten    --    16.3600                 9.5839                49.8965

                    49                     50                     51
                     A                      A                      A
 Frequencies --  1655.8732              1697.4710              1750.8503
 Red. masses --     1.0977                 1.0507                 4.8225
 Frc consts  --     1.7734                 1.7837                 8.7101
 IR Inten    --    46.7628                53.1895               217.8911

                    52                     53                     54
                     A                      A                      A
 Frequencies --  2964.7327              3039.7894              3068.8807
 Red. masses --     1.0682                 1.0607                 1.0374
 Frc consts  --     5.5320                 5.7746                 5.7562
 IR Inten    --   289.1671                17.5510                 8.1617

                    55                     56                     57
                     A                      A                      A
 Frequencies --  3070.5859              3073.7893              3085.1418
 Red. masses --     1.0377                 1.0377                 1.1027
 Frc consts  --     5.7646                 5.7768                 6.1838
 IR Inten    --     8.6154                26.5572                 4.4911

                    58                     59                     60
                     A                      A                      A
 Frequencies --  3129.4523              3135.5304              3142.1086
 Red. masses --     1.1060                 1.1061                 1.1026
 Frc consts  --     6.3816                 6.4070                 6.4135
 IR Inten    --     9.1763                 6.9833                12.0971

                    61                     62                     63
                     A                      A                      A
 Frequencies --  3150.5419              3151.4011              3201.1609
 Red. masses --     1.0912                 1.1008                 1.0974
 Frc consts  --     6.3816                 6.4413                 6.6259
 IR Inten    --     9.4705                 7.2942                13.6834

                    64                     65                     66
                     A                      A                      A
 Frequencies --  3214.8285              3451.8698              3519.2087
 Red. masses --     1.1006                 1.0548                 1.0958
 Frc consts  --     6.7021                 7.4051                 7.9957
 IR Inten    --     0.5324                85.6094                78.3061

 - Thermochemistry -
 -------------------
 Temperature   298.150 Kelvin.  Pressure   1.00000 Atm.
 Atom     1 has atomic number  6 and mass  12.00000

 Molecular mass:   131.11844 amu.
 Principal axes and moments of inertia in atomic units:
                           1         2         3
     Eigenvalues --   931.773591404.401721906.19462
           X            0.99992   0.01237   0.00215
           Y           -0.01234   0.99978  -0.01713
           Z           -0.00236   0.01710   0.99985
 This molecule is an asymmetric top.
 Rotational symmetry number  1.
 Warning -- assumption of classical behavior for rotation
           may cause significant error
 Rotational temperatures (Kelvin)      0.09296     0.06167     0.04544
 Rotational constants (GHZ):           1.93689     1.28506     0.94678
 Zero-point vibrational energy     579639.4 (Joules/Mol)
                                  138.53714 (Kcal/Mol)
 Warning -- explicit consideration of  16 degrees of freedom as
           vibrations may cause significant error
 Vibrational temperatures:    110.88   117.63   143.19   170.86   197.57
          (Kelvin)            289.98   349.71   379.85   402.11   447.10
                              499.83   507.69   619.93   627.54   724.59
                              892.74  1033.61  1068.50  1213.73  1247.37
                             1357.66  1394.12  1482.38  1503.71  1554.55
                             1583.24  1617.65  1627.53  1694.19  1703.30
                             1737.81  1818.42  1863.43  1958.49  1977.57
                             2012.04  2075.40  2086.94  2106.15  2122.25
                             2158.61  2166.36  2184.14  2193.51  2198.06
                             2204.29  2211.44  2251.02  2382.43  2442.28
                             2519.08  4265.58  4373.57  4415.43  4417.88
                             4422.49  4438.83  4502.58  4511.32  4520.79
                             4532.92  4534.16  4605.75  4625.42  4966.46
                             5063.35

 Zero-point correction=                           0.220773 (Hartree/Particle)
 Thermal correction to Energy=                    0.232024
 Thermal correction to Enthalpy=                  0.232968
 Thermal correction to Gibbs Free Energy=         0.184270
 Sum of electronic and zero-point Energies=           -421.961170
 Sum of electronic and thermal Energies=              -421.949919
 Sum of electronic and thermal Enthalpies=            -421.948975
 Sum of electronic and thermal Free Energies=         -421.997673

                     E (Thermal)             CV                S
                      KCal/Mol        Cal/Mol-Kelvin    Cal/Mol-Kelvin
 Total                  145.597             40.174            102.493
 Electronic               0.000              0.000              0.000
 Translational            0.889              2.981             40.526
 Rotational               0.889              2.981             29.302
 Vibrational            143.820             34.212             32.666
 Vibration     1          0.599              1.964              3.964
 Vibration     2          0.600              1.962              3.848
 Vibration     3          0.604              1.949              3.464
 Vibration     4          0.609              1.934              3.121
 Vibration     5          0.614              1.916              2.841
 Vibration     6          0.638              1.838              2.119
 Vibration     7          0.659              1.774              1.780
 Vibration     8          0.671              1.739              1.635
 Vibration     9          0.680              1.712              1.537
 Vibration    10          0.700              1.653              1.358
 Vibration    11          0.725              1.581              1.178
 Vibration    12          0.729              1.569              1.153
 Vibration    13          0.792              1.403              0.856
 Vibration    14          0.797              1.391              0.839
 Vibration    15          0.859              1.242              0.649
 Vibration    16          0.981              0.989              0.416

 Optimization completed.
    -- Stationary point found.
 Normal termination of Gaussian 09 at Fri Feb 16 18:26:56 2018.
