 Gaussian 09, Revision C.01,
 Gaussian 09:  AM64L-G09RevC.01 23-Sep-2011

 ----------------------------------------------------------------------
 #HF/6-31G* Geom=AllCheck Guess=Read Pop=(MK,ReadRadii) Integral=(Grid=
 UltraFine) iop(6/33=2)
 ----------------------------------------------------------------------

 Structure from the checkpoint file:  frag10-conf0.chk
 -----------------------------
 Optimization for frag10-conf0
 -----------------------------
 Charge =  1 Multiplicity = 1

                         Standard orientation:
 ---------------------------------------------------------------------
 Center     Atomic      Atomic             Coordinates (Angstroms)
 Number     Number       Type             X           Y           Z
 ---------------------------------------------------------------------
      1          6           0        0.307388   -0.635785   -0.084276
      2          6           0       -1.294695    2.110784   -0.625863
      3          6           0        2.668156   -0.340858   -0.523367
      4          6           0        1.556701    1.222429    1.034884
      5          6           0       -1.872385    0.706480   -0.423459
      6          6           0       -1.060890   -0.201860    0.523687
      7          7           0        1.419812    0.077536    0.133145
      8          7           0       -1.788163   -1.534834    0.618462
      9          8           0        0.258861   -1.659130   -0.788232
     10          1           0       -0.305187    2.081927   -1.090992
     11          1           0       -1.226275    2.663394    0.316932
     12          1           0       -1.952969    2.676873   -1.290436
     13          1           0        3.084060    0.504823   -1.079458
     14          1           0        2.459591   -1.164827   -1.202170
     15          1           0        3.392241   -0.659757    0.233745
     16          1           0        2.302027    0.990969    1.803306
     17          1           0        0.617291    1.472320    1.523913
     18          1           0        1.896520    2.099104    0.474474
     19          1           0       -2.887900    0.794796   -0.013731
     20          1           0       -1.951774    0.196705   -1.392265
     21          1           0       -1.000083    0.212483    1.530369
     22          1           0       -2.796485   -1.453295    0.457043
     23          1           0       -1.635832   -2.015917    1.510852
     24          1           0       -1.313307   -2.092607   -0.146615
 ---------------------------------------------------------------------

 SCF Done:  E(RHF) =  -419.491334456     A.U. after   13 cycles

 The electronic state is 1-A.
 Alpha  occ. eigenvalues --  -20.69522 -15.86416 -15.75924 -11.52897 -11.48669
 Alpha  occ. eigenvalues --  -11.41120 -11.40802 -11.38611 -11.36662  -1.55527
 Alpha  occ. eigenvalues --   -1.47288  -1.40394  -1.23779  -1.13467  -1.11487
 Alpha  occ. eigenvalues --   -1.07709  -1.00653  -0.95624  -0.92260  -0.89394
 Alpha  occ. eigenvalues --   -0.84043  -0.83778  -0.80396  -0.78664  -0.76686
 Alpha  occ. eigenvalues --   -0.73667  -0.72041  -0.70181  -0.69483  -0.68159
 Alpha  occ. eigenvalues --   -0.67445  -0.66918  -0.65106  -0.64583  -0.59320
 Alpha  occ. eigenvalues --   -0.52700
 Alpha virt. eigenvalues --    0.00419   0.01820   0.06250   0.07929   0.10580
 Alpha virt. eigenvalues --    0.11714   0.12580   0.14631   0.15665   0.16383
 Alpha virt. eigenvalues --    0.17062   0.18051   0.19600   0.20000   0.20925

 Mulliken atomic charges:
              1
     1  C    0.826070
     2  C   -0.507869
     3  C   -0.319043
     4  C   -0.305445
     5  C   -0.345413
     6  C   -0.135384
     7  N   -0.659490
     8  N   -0.894623
     9  O   -0.671598
    10  H    0.195135
    11  H    0.185074
    12  H    0.223584
    13  H    0.205254
    14  H    0.256803
    15  H    0.204661
    16  H    0.220089
    17  H    0.181803
    18  H    0.218665
    19  H    0.202883
    20  H    0.221471
    21  H    0.258870
    22  H    0.461586
    23  H    0.461254
    24  H    0.515662
 Sum of Mulliken atomic charges =   1.00000

 Dipole moment (field-independent basis, Debye):
    X=             -4.5705    Y=             -0.9678    Z=              3.9462  Tot=              6.1154
 Quadrupole moment (field-independent basis, Debye-Ang):
   XX=            -29.3837   YY=            -45.7846   ZZ=            -50.2495
   XY=             10.2120   XZ=             -3.1325   YZ=             -6.0085

 Normal termination of Gaussian 09 at Sat Feb 17 20:56:24 2018.
