 Gaussian 09, Revision C.01,
 Gaussian 09:  AM64L-G09RevC.01 23-Sep-2011

 ----------------------------------------------------------------------
 #HF/6-31G* Geom=AllCheck Guess=Read Pop=(MK,ReadRadii) Integral=(Grid=
 UltraFine) iop(6/33=2)
 ----------------------------------------------------------------------

 Structure from the checkpoint file:  frag7-conf2.chk
 ----------------------------
 Optimization for frag7-conf2
 ----------------------------
 Charge =  0 Multiplicity = 1

                         Standard orientation:
 ---------------------------------------------------------------------
 Center     Atomic      Atomic             Coordinates (Angstroms)
 Number     Number       Type             X           Y           Z
 ---------------------------------------------------------------------
      1          6           0        2.758122    1.273804    0.416499
      2          6           0        1.487286    1.719672    0.042712
      3          6           0        3.059172   -0.086918    0.406986
      4          6           0        0.796639   -0.561708   -0.364000
      5          6           0        0.500114    0.808879   -0.348517
      6          6           0        2.064713   -0.978605    0.013992
      7          6           0       -2.702958   -0.224889    0.001198
      8          6           0       -3.692713   -0.536590    1.113819
      9          6           0       -0.886422    1.282627   -0.746403
     10          7           0       -1.933871    0.891956    0.193201
     11          8           0       -2.613687   -0.925699   -1.000934
     12          9           0        2.349204   -2.298612   -0.003476
     13          1           0        3.518032    1.989783    0.717151
     14          1           0        1.264161    2.783928    0.051386
     15          1           0        4.036341   -0.463265    0.691101
     16          1           0        0.052309   -1.289516   -0.671558
     17          1           0       -4.688456   -0.646322    0.674773
     18          1           0       -3.427176   -1.498562    1.564203
     19          1           0       -3.730798    0.224803    1.899226
     20          1           0       -0.895710    2.373687   -0.844864
     21          1           0       -1.175081    0.851780   -1.708560
     22          1           0       -1.953573    1.345457    1.095780
 ---------------------------------------------------------------------

 SCF Done:  E(RHF) =  -575.402214708     A.U. after   14 cycles

 The electronic state is 1-A.
 Alpha  occ. eigenvalues --  -26.30321 -20.52525 -15.59588 -11.35927 -11.32758
 Alpha  occ. eigenvalues --  -11.27717 -11.25576 -11.25193 -11.24349 -11.24266
 Alpha  occ. eigenvalues --  -11.24202 -11.23798  -1.61261  -1.37707  -1.23404
 Alpha  occ. eigenvalues --   -1.16015  -1.05342  -1.01960  -1.00619  -0.93312
 Alpha  occ. eigenvalues --   -0.84234  -0.82627  -0.79029  -0.72747  -0.70447
 Alpha  occ. eigenvalues --   -0.68181  -0.67945  -0.67816  -0.65338  -0.62640
 Alpha  occ. eigenvalues --   -0.61221  -0.59969  -0.58681  -0.57819  -0.56204
 Alpha  occ. eigenvalues --   -0.54420  -0.53164  -0.51095  -0.49967  -0.49499
 Alpha  occ. eigenvalues --   -0.42293  -0.39472  -0.34027  -0.33376
 Alpha virt. eigenvalues --    0.12380   0.14585   0.19206   0.21272   0.23733
 Alpha virt. eigenvalues --    0.26113   0.27920   0.29735   0.30957   0.31370
 Alpha virt. eigenvalues --    0.32109   0.33126   0.33978   0.35323   0.37559

 Mulliken atomic charges:
              1
     1  C   -0.185354
     2  C   -0.242568
     3  C   -0.280565
     4  C   -0.306944
     5  C    0.033819
     6  C    0.473676
     7  C    0.763653
     8  C   -0.576392
     9  C   -0.164429
    10  N   -0.791138
    11  O   -0.630501
    12  F   -0.399344
    13  H    0.212401
    14  H    0.200481
    15  H    0.224763
    16  H    0.264560
    17  H    0.212268
    18  H    0.209094
    19  H    0.168357
    20  H    0.188513
    21  H    0.241217
    22  H    0.384433
 Sum of Mulliken atomic charges =   0.00000

 Dipole moment (field-independent basis, Debye):
    X=             -0.2309    Y=              3.9350    Z=              3.0620  Tot=              4.9913
 Quadrupole moment (field-independent basis, Debye-Ang):
   XX=            -64.9953   YY=            -69.9316   ZZ=            -71.2465
   XY=             -0.0774   XZ=             -6.6669   YZ=             -1.5607

 Normal termination of Gaussian 09 at Sat Feb 17 20:56:30 2018.
