 Gaussian 09, Revision C.01,
 Gaussian 09:  AM64L-G09RevC.01 23-Sep-2011

 ---------------------------------------------------------
 #B3LYP/6-31G* Integral=(Grid=UltraFine) freq Opt pop=none
 ---------------------------------------------------------

 99/9=1/99;
 ----------------------------
 Optimization for frag7-conf2
 ----------------------------
 Charge =  0 Multiplicity = 1

 SCF Done:  E(RB3LYP) =  -578.806115678     A.U. after   15 cycles
 SCF Done:  E(RB3LYP) =  -578.807425278     A.U. after   12 cycles
 SCF Done:  E(RB3LYP) =  -578.807546344     A.U. after   10 cycles
 SCF Done:  E(RB3LYP) =  -578.807569217     A.U. after   11 cycles
 SCF Done:  E(RB3LYP) =  -578.807599954     A.U. after   11 cycles
 SCF Done:  E(RB3LYP) =  -578.807652784     A.U. after   12 cycles
 SCF Done:  E(RB3LYP) =  -578.807733683     A.U. after   15 cycles
 SCF Done:  E(RB3LYP) =  -578.807852473     A.U. after   10 cycles
 SCF Done:  E(RB3LYP) =  -578.808325604     A.U. after   13 cycles
 SCF Done:  E(RB3LYP) =  -578.808444184     A.U. after   15 cycles
 SCF Done:  E(RB3LYP) =  -578.809550101     A.U. after   12 cycles
 SCF Done:  E(RB3LYP) =  -578.809564931     A.U. after   10 cycles
 SCF Done:  E(RB3LYP) =  -578.809577351     A.U. after   11 cycles
 SCF Done:  E(RB3LYP) =  -578.809587551     A.U. after   10 cycles
 SCF Done:  E(RB3LYP) =  -578.809596224     A.U. after   10 cycles
 SCF Done:  E(RB3LYP) =  -578.809604075     A.U. after   10 cycles
 SCF Done:  E(RB3LYP) =  -578.809609013     A.U. after   10 cycles
 SCF Done:  E(RB3LYP) =  -578.809609778     A.U. after    8 cycles
 SCF Done:  E(RB3LYP) =  -578.809609825     A.U. after    7 cycles
 Optimization completed.
    -- Stationary point found.
 Normal termination of Gaussian 09 at Fri Feb 16 18:03:40 2018.

 --------------------------------------------------------------------
 #N Geom=AllCheck Guess=TCheck SCRF=Check GenChk RB3LYP/6-31G(d) Freq
 --------------------------------------------------------------------

 Structure from the checkpoint file:  frag7-conf2.chk
 ----------------------------
 Optimization for frag7-conf2
 ----------------------------
 Charge =  0 Multiplicity = 1

                         Standard orientation:
 ---------------------------------------------------------------------
 Center     Atomic      Atomic             Coordinates (Angstroms)
 Number     Number       Type             X           Y           Z
 ---------------------------------------------------------------------
      1          6           0        2.758122    1.273804    0.416499
      2          6           0        1.487286    1.719672    0.042712
      3          6           0        3.059172   -0.086918    0.406986
      4          6           0        0.796639   -0.561708   -0.364000
      5          6           0        0.500114    0.808879   -0.348517
      6          6           0        2.064713   -0.978605    0.013992
      7          6           0       -2.702958   -0.224889    0.001198
      8          6           0       -3.692713   -0.536590    1.113819
      9          6           0       -0.886422    1.282627   -0.746403
     10          7           0       -1.933871    0.891956    0.193201
     11          8           0       -2.613687   -0.925699   -1.000934
     12          9           0        2.349204   -2.298612   -0.003476
     13          1           0        3.518032    1.989783    0.717151
     14          1           0        1.264161    2.783928    0.051386
     15          1           0        4.036341   -0.463265    0.691101
     16          1           0        0.052309   -1.289516   -0.671558
     17          1           0       -4.688456   -0.646322    0.674773
     18          1           0       -3.427176   -1.498562    1.564203
     19          1           0       -3.730798    0.224803    1.899226
     20          1           0       -0.895710    2.373687   -0.844864
     21          1           0       -1.175081    0.851780   -1.708560
     22          1           0       -1.953573    1.345457    1.095780
 ---------------------------------------------------------------------

 SCF Done:  E(RB3LYP) =  -578.809609825     A.U. after    1 cycles

 Isotropic polarizability for W=    0.000000       97.89 Bohr**3.
 End of Minotr Frequency-dependent properties file   721 does not exist.

                     1                      2                      3
                     A                      A                      A
 Frequencies --    29.1209                43.3450                55.6304
 Red. masses --     3.8685                 1.7749                 4.0676
 Frc consts  --     0.0019                 0.0020                 0.0074
 IR Inten    --     1.7777                 0.8575                11.1890

                     4                      5                      6
                     A                      A                      A
 Frequencies --    67.8036               171.6382               209.1138
 Red. masses --     1.9611                 5.0722                 6.5720
 Frc consts  --     0.0053                 0.0880                 0.1693
 IR Inten    --     2.1633                 1.7179                 5.9342

                     7                      8                      9
                     A                      A                      A
 Frequencies --   245.7957               300.0941               325.4750
 Red. masses --     5.1888                 3.9000                 2.4686
 Frc consts  --     0.1847                 0.2069                 0.1541
 IR Inten    --     0.7884                 0.5021                 2.1496

                    10                     11                     12
                     A                      A                      A
 Frequencies --   424.9698               448.8177               454.4962
 Red. masses --     4.3135                 1.8789                 1.7045
 Frc consts  --     0.4590                 0.2230                 0.2074
 IR Inten    --     2.1473                52.5506                57.0466

                    13                     14                     15
                     A                      A                      A
 Frequencies --   484.1726               526.0351               542.0661
 Red. masses --     3.1185                 7.7367                 4.8380
 Frc consts  --     0.4307                 1.2613                 0.8376
 IR Inten    --    17.2501                 2.0420                 8.2401

                    16                     17                     18
                     A                      A                      A
 Frequencies --   611.3320               622.7363               657.4865
 Red. masses --     4.2569                 2.7372                 3.5506
 Frc consts  --     0.9373                 0.6254                 0.9043
 IR Inten    --     6.7729                 2.2770                 0.8044

                    19                     20                     21
                     A                      A                      A
 Frequencies --   712.0698               760.5735               800.3828
 Red. masses --     3.0837                 3.5586                 1.6015
 Frc consts  --     0.9212                 1.2129                 0.6045
 IR Inten    --     9.5724                27.1253                31.3154

                    22                     23                     24
                     A                      A                      A
 Frequencies --   857.4585               897.8091               916.5677
 Red. masses --     2.6646                 1.3933                 1.3549
 Frc consts  --     1.1543                 0.6617                 0.6707
 IR Inten    --     2.9314                 0.9236                18.0789

                    25                     26                     27
                     A                      A                      A
 Frequencies --   966.8417               968.6584              1002.8057
 Red. masses --     3.1089                 1.2949                 1.6915
 Frc consts  --     1.7122                 0.7158                 1.0022
 IR Inten    --     9.0689                 0.4285                 4.0561

                    28                     29                     30
                     A                      A                      A
 Frequencies --  1019.2318              1040.5003              1068.1788
 Red. masses --     5.9345                 2.5509                 1.7011
 Frc consts  --     3.6323                 1.6272                 1.1436
 IR Inten    --     0.0386                 3.2349                 8.5601

                    31                     32                     33
                     A                      A                      A
 Frequencies --  1101.1993              1114.1905              1180.4570
 Red. masses --     2.7756                 1.6430                 1.7087
 Frc consts  --     1.9831                 1.2017                 1.4029
 IR Inten    --    13.8918                 1.8081                13.9231

                    34                     35                     36
                     A                      A                      A
 Frequencies --  1192.5349              1265.9845              1286.5194
 Red. masses --     1.1821                 1.4573                 1.8420
 Frc consts  --     0.9905                 1.3761                 1.7963
 IR Inten    --     1.8209                16.9529               139.1707

                    37                     38                     39
                     A                      A                      A
 Frequencies --  1302.3130              1334.2208              1366.9361
 Red. masses --     4.0685                 1.3135                 4.2033
 Frc consts  --     4.0655                 1.3777                 4.6274
 IR Inten    --    73.4693                20.0055                 2.3119

                    40                     41                     42
                     A                      A                      A
 Frequencies --  1401.7745              1426.1196              1493.8177
 Red. masses --     1.3674                 1.2617                 2.3781
 Frc consts  --     1.5831                 1.5118                 3.1266
 IR Inten    --    16.7931                22.6724                31.0922

                    43                     44                     45
                     A                      A                      A
 Frequencies --  1500.5196              1503.2897              1515.3724
 Red. masses --     1.0799                 1.1873                 1.0687
 Frc consts  --     1.4326                 1.5809                 1.4460
 IR Inten    --    13.3148                 9.7732                18.7454

                    46                     47                     48
                     A                      A                      A
 Frequencies --  1538.0249              1556.1390              1651.3305
 Red. masses --     2.5558                 1.8812                 6.0555
 Frc consts  --     3.5620                 2.6840                 9.7291
 IR Inten    --    58.5434               188.3091                51.1923

                    49                     50                     51
                     A                      A                      A
 Frequencies --  1669.0650              1777.9447              3064.2707
 Red. masses --     6.3549                 8.9900                 1.0358
 Frc consts  --    10.4306                16.7435                 5.7302
 IR Inten    --    35.7875               202.8690                 8.3483

                    52                     53                     54
                     A                      A                      A
 Frequencies --  3070.8456              3134.2776              3136.7412
 Red. masses --     1.0649                 1.0999                 1.1028
 Frc consts  --     5.9167                 6.3659                 6.3927
 IR Inten    --    32.2706                 1.1606                15.1364

                    55                     56                     57
                     A                      A                      A
 Frequencies --  3146.0757              3181.1857              3201.0791
 Red. masses --     1.1020                 1.0876                 1.0921
 Frc consts  --     6.4264                 6.4849                 6.5934
 IR Inten    --    10.3186                 8.2974                19.2980

                    58                     59                     60
                     A                      A                      A
 Frequencies --  3222.7207              3224.7600              3622.7495
 Red. masses --     1.0923                 1.0943                 1.0776
 Frc consts  --     6.6842                 6.7049                 8.3327
 IR Inten    --     2.5428                 5.5814                15.4249

 - Thermochemistry -
 -------------------
 Temperature   298.150 Kelvin.  Pressure   1.00000 Atm.
 Atom     1 has atomic number  6 and mass  12.00000

 Molecular mass:   167.07464 amu.
 Principal axes and moments of inertia in atomic units:
                           1         2         3
     Eigenvalues --  1103.880053433.860174123.91598
           X            0.99967   0.02289  -0.01172
           Y           -0.02302   0.99967  -0.01149
           Z            0.01146   0.01175   0.99987
 This molecule is an asymmetric top.
 Rotational symmetry number  1.
 Warning -- assumption of classical behavior for rotation
           may cause significant error
 Rotational temperatures (Kelvin)      0.07846     0.02522     0.02100
 Rotational constants (GHZ):           1.63491     0.52557     0.43763
 Zero-point vibrational energy     463036.5 (Joules/Mol)
                                  110.66839 (Kcal/Mol)
 Warning -- explicit consideration of  16 degrees of freedom as
           vibrations may cause significant error
 Vibrational temperatures:     41.90    62.36    80.04    97.55   246.95
          (Kelvin)            300.87   353.64   431.77   468.29   611.44
                              645.75   653.92   696.62   756.85   779.91
                              879.57   895.98   945.98  1024.51  1094.29
                             1151.57  1233.69  1291.75  1318.73  1391.07
                             1393.68  1442.81  1466.45  1497.05  1536.87
                             1584.38  1603.07  1698.41  1715.79  1821.47
                             1851.01  1873.74  1919.64  1966.71  2016.84
                             2051.87  2149.27  2158.91  2162.90  2180.28
                             2212.87  2238.93  2375.89  2401.41  2558.06
                             4408.80  4418.26  4509.52  4513.07  4526.50
                             4577.01  4605.63  4636.77  4639.70  5212.32

 Zero-point correction=                           0.176361 (Hartree/Particle)
 Thermal correction to Energy=                    0.187723
 Thermal correction to Enthalpy=                  0.188667
 Thermal correction to Gibbs Free Energy=         0.136971
 Sum of electronic and zero-point Energies=           -578.633249
 Sum of electronic and thermal Energies=              -578.621887
 Sum of electronic and thermal Enthalpies=            -578.620943
 Sum of electronic and thermal Free Energies=         -578.672639

                     E (Thermal)             CV                S
                      KCal/Mol        Cal/Mol-Kelvin    Cal/Mol-Kelvin
 Total                  117.798             41.661            108.804
 Electronic               0.000              0.000              0.000
 Translational            0.889              2.981             41.248
 Rotational               0.889              2.981             31.125
 Vibrational            116.020             35.699             36.431
 Vibration     1          0.593              1.984              5.888
 Vibration     2          0.595              1.980              5.100
 Vibration     3          0.596              1.975              4.606
 Vibration     4          0.598              1.970              4.216
 Vibration     5          0.626              1.877              2.417
 Vibration     6          0.642              1.827              2.051
 Vibration     7          0.660              1.770              1.761
 Vibration     8          0.693              1.674              1.416
 Vibration     9          0.710              1.625              1.282
 Vibration    10          0.787              1.416              0.875
 Vibration    11          0.808              1.364              0.799
 Vibration    12          0.813              1.351              0.782
 Vibration    13          0.840              1.285              0.699
 Vibration    14          0.881              1.192              0.596
 Vibration    15          0.897              1.157              0.561
 Vibration    16          0.970              1.008              0.431

 Optimization completed.
    -- Stationary point found.
 Normal termination of Gaussian 09 at Fri Feb 16 18:15:45 2018.
