 Gaussian 09, Revision C.01,
 Gaussian 09:  AM64L-G09RevC.01 23-Sep-2011

 ---------------------------------------------------------
 #B3LYP/6-31G* Integral=(Grid=UltraFine) freq Opt pop=none
 ---------------------------------------------------------

 99/9=1/99;
 ----------------------------
 Optimization for frag1-conf2
 ----------------------------
 Charge =  1 Multiplicity = 1

 SCF Done:  E(RB3LYP) =  -531.712462207     A.U. after   14 cycles
 SCF Done:  E(RB3LYP) =  -531.715735272     A.U. after   13 cycles
 SCF Done:  E(RB3LYP) =  -531.716315590     A.U. after   12 cycles
 SCF Done:  E(RB3LYP) =  -531.716441255     A.U. after   12 cycles
 SCF Done:  E(RB3LYP) =  -531.716582684     A.U. after   12 cycles
 SCF Done:  E(RB3LYP) =  -531.716709163     A.U. after   10 cycles
 SCF Done:  E(RB3LYP) =  -531.716791200     A.U. after   11 cycles
 SCF Done:  E(RB3LYP) =  -531.716828108     A.U. after   10 cycles
 SCF Done:  E(RB3LYP) =  -531.716886347     A.U. after   10 cycles
 SCF Done:  E(RB3LYP) =  -531.716919602     A.U. after   10 cycles
 SCF Done:  E(RB3LYP) =  -531.717230928     A.U. after   13 cycles
 SCF Done:  E(RB3LYP) =  -531.717410028     A.U. after   12 cycles
 SCF Done:  E(RB3LYP) =  -531.717437183     A.U. after   10 cycles
 SCF Done:  E(RB3LYP) =  -531.717442329     A.U. after    9 cycles
 SCF Done:  E(RB3LYP) =  -531.717444586     A.U. after    9 cycles
 SCF Done:  E(RB3LYP) =  -531.717445928     A.U. after    9 cycles
 SCF Done:  E(RB3LYP) =  -531.717446033     A.U. after    7 cycles
 SCF Done:  E(RB3LYP) =  -531.717446225     A.U. after    7 cycles
 SCF Done:  E(RB3LYP) =  -531.717446324     A.U. after    7 cycles
 Optimization completed.
    -- Stationary point found.
 Normal termination of Gaussian 09 at Sat Feb 17 21:38:40 2018.

 --------------------------------------------------------------------
 #N Geom=AllCheck Guess=TCheck SCRF=Check GenChk RB3LYP/6-31G(d) Freq
 --------------------------------------------------------------------

 Structure from the checkpoint file:  frag1-conf2.chk
 ----------------------------
 Optimization for frag1-conf2
 ----------------------------
 Charge =  1 Multiplicity = 1

                         Standard orientation:
 ---------------------------------------------------------------------
 Center     Atomic      Atomic             Coordinates (Angstroms)
 Number     Number       Type             X           Y           Z
 ---------------------------------------------------------------------
      1          6           0        3.273981   -0.319073    0.197685
      2          6           0       -3.395653   -0.259459    0.006683
      3          6           0        4.700592   -0.669901   -0.176900
      4          6           0        0.269881    0.248116   -0.495616
      5          6           0        1.396535    1.223962   -0.107960
      6          6           0       -1.074994    0.666466    0.099798
      7          7           0       -4.223994   -1.234749   -0.404198
      8          7           0        2.702465    0.720236   -0.495352
      9          7           0       -2.079071   -0.386287   -0.151034
     10          7           0       -3.912540    0.848720    0.555114
     11          8           0        2.648018   -0.912918    1.069963
     12          1           0        5.050194   -0.173106   -1.086842
     13          1           0        5.361783   -0.392463    0.651073
     14          1           0        4.777092   -1.752714   -0.305278
     15          1           0        0.551494   -0.732039   -0.095841
     16          1           0        0.191635    0.172689   -1.586403
     17          1           0        1.249933    2.198743   -0.583607
     18          1           0        1.382955    1.369297    0.979597
     19          1           0       -1.436367    1.597038   -0.353636
     20          1           0       -0.971098    0.819589    1.182467
     21          1           0       -3.893937   -1.995235   -0.981734
     22          1           0       -5.182935   -1.277825   -0.088983
     23          1           0        3.254060    1.243367   -1.159523
     24          1           0       -1.718803   -1.312130   -0.350018
     25          1           0       -4.901259    1.049513    0.501926
     26          1           0       -3.328963    1.512525    1.043251
 ---------------------------------------------------------------------

 SCF Done:  E(RB3LYP) =  -531.717446324     A.U. after    1 cycles

 Isotropic polarizability for W=    0.000000       91.22 Bohr**3.
 End of Minotr Frequency-dependent properties file   721 does not exist.

                     1                      2                      3
                     A                      A                      A
 Frequencies --    27.0817                38.1420                52.6552
 Red. masses --     3.6755                 3.4576                 1.3319
 Frc consts  --     0.0016                 0.0030                 0.0022
 IR Inten    --     1.6973                 5.1508                 6.8949

                     4                      5                      6
                     A                      A                      A
 Frequencies --    62.3390                80.0155               121.1227
 Red. masses --     2.6462                 3.1660                 2.8478
 Frc consts  --     0.0061                 0.0119                 0.0246
 IR Inten    --     4.3041                 7.7923                 1.5463

                     7                      8                      9
                     A                      A                      A
 Frequencies --   140.7475               176.0760               233.7466
 Red. masses --     2.4939                 2.7241                 1.4902
 Frc consts  --     0.0291                 0.0498                 0.0480
 IR Inten    --     2.1714                 0.8449                37.4589

                    10                     11                     12
                     A                      A                      A
 Frequencies --   248.6217               271.3864               291.0565
 Red. masses --     2.7895                 3.0717                 3.5417
 Frc consts  --     0.1016                 0.1333                 0.1768
 IR Inten    --    44.2494                 1.3202                 6.8689

                    13                     14                     15
                     A                      A                      A
 Frequencies --   325.7452               355.8988               379.0290
 Red. masses --     1.2124                 1.1470                 1.2610
 Frc consts  --     0.0758                 0.0856                 0.1067
 IR Inten    --   142.5732               290.1564                71.7152

                    16                     17                     18
                     A                      A                      A
 Frequencies --   408.0350               478.8587               502.8159
 Red. masses --     2.4707                 3.4261                 1.8491
 Frc consts  --     0.2424                 0.4629                 0.2754
 IR Inten    --     9.9619                 9.8877                43.1857

                    19                     20                     21
                     A                      A                      A
 Frequencies --   538.8040               562.9954               588.4727
 Red. masses --     1.1099                 1.2818                 3.0006
 Frc consts  --     0.1898                 0.2394                 0.6122
 IR Inten    --    50.6566                66.5181                 2.4764

                    22                     23                     24
                     A                      A                      A
 Frequencies --   634.3937               664.4299               702.4797
 Red. masses --     2.4831                 3.6367                 5.9863
 Frc consts  --     0.5888                 0.9459                 1.7405
 IR Inten    --     0.3798                 6.1509                 4.5074

                    25                     26                     27
                     A                      A                      A
 Frequencies --   761.9156               855.9830               936.2682
 Red. masses --     1.1552                 1.6773                 1.9909
 Frc consts  --     0.3951                 0.7241                 1.0282
 IR Inten    --     8.2737                 1.1786                 1.9449

                    28                     29                     30
                     A                      A                      A
 Frequencies --   973.5985              1011.2349              1044.5905
 Red. masses --     3.5292                 1.7965                 3.0559
 Frc consts  --     1.9710                 1.0824                 1.9646
 IR Inten    --     0.6165                11.6184                 4.4718

                    31                     32                     33
                     A                      A                      A
 Frequencies --  1068.7589              1070.8083              1075.3192
 Red. masses --     1.7820                 1.6681                 2.3224
 Frc consts  --     1.1993                 1.1269                 1.5822
 IR Inten    --    11.7913                 3.2740                 0.9332

                    34                     35                     36
                     A                      A                      A
 Frequencies --  1106.0658              1124.0454              1164.3588
 Red. masses --     2.5763                 2.6897                 2.2635
 Frc consts  --     1.8570                 2.0023                 1.8080
 IR Inten    --     4.3948                 5.7445                14.6353

                    37                     38                     39
                     A                      A                      A
 Frequencies --  1172.9190              1252.0025              1284.6825
 Red. masses --     1.9035                 1.2560                 1.8964
 Frc consts  --     1.5429                 1.1600                 1.8441
 IR Inten    --     1.7581                21.8310               103.4046

                    40                     41                     42
                     A                      A                      A
 Frequencies --  1309.8035              1344.7263              1367.5656
 Red. masses --     1.2816                 1.1526                 1.0967
 Frc consts  --     1.2954                 1.2280                 1.2084
 IR Inten    --     3.8308                 3.8784                16.6184

                    43                     44                     45
                     A                      A                      A
 Frequencies --  1398.2319              1429.2279              1436.9062
 Red. masses --     1.2819                 1.2490                 1.3637
 Frc consts  --     1.4766                 1.5032                 1.6589
 IR Inten    --    14.0108                39.9002                58.7401

                    46                     47                     48
                     A                      A                      A
 Frequencies --  1458.0753              1496.9159              1503.6338
 Red. masses --     1.4577                 1.0608                 1.1033
 Frc consts  --     1.8259                 1.4005                 1.4697
 IR Inten    --     6.6653                17.4518                 6.9616

                    49                     50                     51
                     A                      A                      A
 Frequencies --  1513.8019              1524.7901              1543.6132
 Red. masses --     1.0713                 1.0827                 1.1047
 Frc consts  --     1.4465                 1.4831                 1.5509
 IR Inten    --    24.3680                14.8188                 8.2828

                    52                     53                     54
                     A                      A                      A
 Frequencies --  1547.7527              1608.9492              1669.8251
 Red. masses --     1.8364                 1.4585                 1.7070
 Frc consts  --     2.5919                 2.2245                 2.8042
 IR Inten    --   198.1477                 2.3075               118.1456

                    55                     56                     57
                     A                      A                      A
 Frequencies --  1717.8836              1719.1142              1774.7416
 Red. masses --     2.0651                 2.3271                 8.8089
 Frc consts  --     3.5907                 4.0521                16.3471
 IR Inten    --   483.2573               415.9598               181.3551

                    58                     59                     60
                     A                      A                      A
 Frequencies --  3039.1706              3051.3052              3068.3252
 Red. masses --     1.0597                 1.0623                 1.0591
 Frc consts  --     5.7667                 5.8274                 5.8750
 IR Inten    --     6.2949                18.3652                25.6396

                    61                     62                     63
                     A                      A                      A
 Frequencies --  3068.8248              3088.6409              3106.2468
 Red. masses --     1.0364                 1.1051                 1.1029
 Frc consts  --     5.7505                 6.2111                 6.2699
 IR Inten    --     4.2776                 9.6274                 3.1334

                    64                     65                     66
                     A                      A                      A
 Frequencies --  3128.4890              3138.7042              3155.9382
 Red. masses --     1.1072                 1.1021                 1.1028
 Frc consts  --     6.3849                 6.3970                 6.4713
 IR Inten    --    21.9996                 8.8359                 7.2430

                    67                     68                     69
                     A                      A                      A
 Frequencies --  3594.9837              3601.2562              3612.5463
 Red. masses --     1.0714                 1.0494                 1.0519
 Frc consts  --     8.1579                 8.0186                 8.0878
 IR Inten    --    96.1361               204.1170                54.8776

                    70                     71                     72
                     A                      A                      A
 Frequencies --  3637.9104              3710.2048              3716.2669
 Red. masses --     1.0789                 1.1062                 1.1062
 Frc consts  --     8.4129                 8.9717                 9.0013
 IR Inten    --    32.1656                91.3164               113.6928

 - Thermochemistry -
 -------------------
 Temperature   298.150 Kelvin.  Pressure   1.00000 Atm.
 Atom     1 has atomic number  6 and mass  12.00000

 Molecular mass:   159.12459 amu.
 Principal axes and moments of inertia in atomic units:
                           1         2         3
     Eigenvalues --   554.679585459.306825704.48292
           X            0.99998   0.00058  -0.00592
           Y           -0.00025   0.99842   0.05616
           Z            0.00594  -0.05616   0.99840
 This molecule is an asymmetric top.
 Rotational symmetry number  1.
 Warning -- assumption of classical behavior for rotation
           may cause significant error
 Rotational temperatures (Kelvin)      0.15615     0.01587     0.01518
 Rotational constants (GHZ):           3.25366     0.33058     0.31637
 Zero-point vibrational energy     603347.8 (Joules/Mol)
                                  144.20358 (Kcal/Mol)
 Warning -- explicit consideration of  21 degrees of freedom as
           vibrations may cause significant error
 Vibrational temperatures:     38.96    54.88    75.76    89.69   115.12
          (Kelvin)            174.27   202.50   253.33   336.31   357.71
                              390.46   418.76   468.67   512.06   545.34
                              587.07   688.97   723.44   775.22   810.02
                              846.68   912.75   955.97  1010.71  1096.23
                             1231.57  1347.08  1400.79  1454.94  1502.93
                             1537.70  1540.65  1547.14  1591.38  1617.25
                             1675.25  1687.57  1801.35  1848.37  1884.51
                             1934.76  1967.62  2011.74  2056.34  2067.38
                             2097.84  2153.73  2163.39  2178.02  2193.83
                             2220.91  2226.87  2314.92  2402.50  2471.65
                             2473.42  2553.45  4372.68  4390.14  4414.63
                             4415.35  4443.86  4469.19  4501.19  4515.89
                             4540.69  5172.37  5181.40  5197.64  5234.14
                             5338.15  5346.87

 Zero-point correction=                           0.229803 (Hartree/Particle)
 Thermal correction to Energy=                    0.243991
 Thermal correction to Enthalpy=                  0.244936
 Thermal correction to Gibbs Free Energy=         0.187224
 Sum of electronic and zero-point Energies=           -531.487643
 Sum of electronic and thermal Energies=              -531.473455
 Sum of electronic and thermal Enthalpies=            -531.472511
 Sum of electronic and thermal Free Energies=         -531.530222

                     E (Thermal)             CV                S
                      KCal/Mol        Cal/Mol-Kelvin    Cal/Mol-Kelvin
 Total                  153.107             49.680            121.464
 Electronic               0.000              0.000              0.000
 Translational            0.889              2.981             41.103
 Rotational               0.889              2.981             31.225
 Vibrational            151.329             43.718             49.137
 Vibration     1          0.593              1.984              6.032
 Vibration     2          0.594              1.982              5.353
 Vibration     3          0.596              1.977              4.715
 Vibration     4          0.597              1.972              4.382
 Vibration     5          0.600              1.963              3.890
 Vibration     6          0.609              1.932              3.082
 Vibration     7          0.615              1.913              2.794
 Vibration     8          0.628              1.872              2.370
 Vibration     9          0.654              1.789              1.850
 Vibration    10          0.662              1.765              1.740
 Vibration    11          0.675              1.726              1.587
 Vibration    12          0.687              1.690              1.468
 Vibration    13          0.710              1.624              1.281
 Vibration    14          0.731              1.563              1.140
 Vibration    15          0.749              1.515              1.043
 Vibration    16          0.773              1.453              0.934
 Vibration    17          0.835              1.297              0.713
 Vibration    18          0.858              1.244              0.651
 Vibration    19          0.894              1.164              0.568
 Vibration    20          0.919              1.111              0.518
 Vibration    21          0.946              1.056              0.470

 Normal termination of Gaussian 09 at Sat Feb 17 21:52:07 2018.
