 Gaussian 09, Revision C.01,
 Gaussian 09:  AM64L-G09RevC.01 23-Sep-2011

 ----------------------------------------------------------------------
 #HF/6-31G* Geom=AllCheck Guess=Read Pop=(MK,ReadRadii) Integral=(Grid=
 UltraFine) iop(6/33=2)
 ----------------------------------------------------------------------

 Structure from the checkpoint file:  frag1-conf2.chk
 ----------------------------
 Optimization for frag1-conf2
 ----------------------------
 Charge =  1 Multiplicity = 1

                         Standard orientation:
 ---------------------------------------------------------------------
 Center     Atomic      Atomic             Coordinates (Angstroms)
 Number     Number       Type             X           Y           Z
 ---------------------------------------------------------------------
      1          6           0        3.273981   -0.319073    0.197685
      2          6           0       -3.395653   -0.259459    0.006683
      3          6           0        4.700592   -0.669901   -0.176900
      4          6           0        0.269881    0.248116   -0.495616
      5          6           0        1.396535    1.223962   -0.107960
      6          6           0       -1.074994    0.666466    0.099798
      7          7           0       -4.223994   -1.234749   -0.404198
      8          7           0        2.702465    0.720236   -0.495352
      9          7           0       -2.079071   -0.386287   -0.151034
     10          7           0       -3.912540    0.848720    0.555114
     11          8           0        2.648018   -0.912918    1.069963
     12          1           0        5.050194   -0.173106   -1.086842
     13          1           0        5.361783   -0.392463    0.651073
     14          1           0        4.777092   -1.752714   -0.305278
     15          1           0        0.551494   -0.732039   -0.095841
     16          1           0        0.191635    0.172689   -1.586403
     17          1           0        1.249933    2.198743   -0.583607
     18          1           0        1.382955    1.369297    0.979597
     19          1           0       -1.436367    1.597038   -0.353636
     20          1           0       -0.971098    0.819589    1.182467
     21          1           0       -3.893937   -1.995235   -0.981734
     22          1           0       -5.182935   -1.277825   -0.088983
     23          1           0        3.254060    1.243367   -1.159523
     24          1           0       -1.718803   -1.312130   -0.350018
     25          1           0       -4.901259    1.049513    0.501926
     26          1           0       -3.328963    1.512525    1.043251
 ---------------------------------------------------------------------

 SCF Done:  E(RHF) =  -528.441132121     A.U. after   13 cycles

 The electronic state is 1-A.
 Alpha  occ. eigenvalues --  -20.61249 -15.78747 -15.78465 -15.78302 -15.68485
 Alpha  occ. eigenvalues --  -11.59120 -11.44366 -11.42794 -11.38041 -11.35658
 Alpha  occ. eigenvalues --  -11.31735  -1.52775  -1.46519  -1.39250  -1.37926
 Alpha  occ. eigenvalues --   -1.32283  -1.19311  -1.10544  -1.06149  -1.02654
 Alpha  occ. eigenvalues --   -0.97788  -0.94885  -0.92491  -0.87786  -0.86180
 Alpha  occ. eigenvalues --   -0.85104  -0.81464  -0.80056  -0.76821  -0.75805
 Alpha  occ. eigenvalues --   -0.73729  -0.71286  -0.68448  -0.67600  -0.65371
 Alpha  occ. eigenvalues --   -0.64623  -0.63271  -0.62055  -0.61078  -0.58289
 Alpha  occ. eigenvalues --   -0.57568  -0.50688  -0.48480
 Alpha virt. eigenvalues --    0.01355   0.03152   0.07152   0.08438   0.09415
 Alpha virt. eigenvalues --    0.09926   0.11815   0.13050   0.14196   0.15773
 Alpha virt. eigenvalues --    0.18159   0.18726   0.20175   0.21327   0.22703

 Mulliken atomic charges:
              1
     1  C    0.754048
     2  C    1.053544
     3  C   -0.580741
     4  C   -0.365219
     5  C   -0.102913
     6  C   -0.134031
     7  N   -0.925234
     8  N   -0.808567
     9  N   -0.816657
    10  N   -0.924537
    11  O   -0.630255
    12  H    0.179841
    13  H    0.223971
    14  H    0.222351
    15  H    0.232897
    16  H    0.192522
    17  H    0.186923
    18  H    0.204818
    19  H    0.206604
    20  H    0.213425
    21  H    0.443414
    22  H    0.442239
    23  H    0.401150
    24  H    0.432696
    25  H    0.444064
    26  H    0.453650
 Sum of Mulliken atomic charges =   1.00000

 Dipole moment (field-independent basis, Debye):
    X=            -12.0940    Y=              1.4030    Z=             -2.4302  Tot=             12.4153
 Quadrupole moment (field-independent basis, Debye-Ang):
   XX=             15.9707   YY=            -53.8381   ZZ=            -66.7007
   XY=              9.7563   XZ=             -9.6848   YZ=              6.6380

 Normal termination of Gaussian 09 at Sun Feb 18 17:06:18 2018.
