 Gaussian 09, Revision C.01,
 Gaussian 09:  AM64L-G09RevC.01 23-Sep-2011

 ----------------------------------------------------------------------
 #HF/6-31G* Geom=AllCheck Guess=Read Pop=(MK,ReadRadii) Integral=(Grid=
 UltraFine) iop(6/33=2)
 ----------------------------------------------------------------------

 Structure from the checkpoint file:  frag53-conf2.chk
 -----------------------------
 Optimization for frag53-conf2
 -----------------------------
 Charge =  0 Multiplicity = 1

                         Standard orientation:
 ---------------------------------------------------------------------
 Center     Atomic      Atomic             Coordinates (Angstroms)
 Number     Number       Type             X           Y           Z
 ---------------------------------------------------------------------
      1          6           0       -0.583251   -0.733364   -0.568764
      2          6           0       -1.841527   -1.229934   -0.277928
      3          6           0       -1.370263    1.427001    0.054164
      4          6           0       -0.315851    0.637327   -0.399828
      5          6           0       -2.832803   -0.333384    0.178204
      6          6           0        2.885877   -0.264138    0.052371
      7          6           0        3.847531   -0.599467    1.183391
      8          6           0        1.048413    1.221743   -0.690844
      9          7           0       -2.599676    0.976951    0.335021
     10          7           0       -4.094877   -0.779046    0.534782
     11          7           0        2.084704    0.824226    0.263826
     12          8           0        2.849368   -0.924831   -0.981043
     13          1           0        0.203621   -1.392372   -0.926481
     14          1           0       -2.067934   -2.286461   -0.394299
     15          1           0       -1.223799    2.499364    0.193648
     16          1           0        3.596794   -1.588670    1.580170
     17          1           0        4.860219   -0.659878    0.774366
     18          1           0        3.836978    0.125307    2.003538
     19          1           0        1.408068    0.896525   -1.670451
     20          1           0        0.993343    2.316218   -0.697830
     21          1           0       -4.433150   -1.610682    0.069848
     22          1           0       -4.780352   -0.037473    0.605939
     23          1           0        2.051459    1.227147    1.189883
 ---------------------------------------------------------------------

 SCF Done:  E(RHF) =  -547.582789745     A.U. after   14 cycles

 The electronic state is 1-A.
 Alpha  occ. eigenvalues --  -20.52198 -15.59048 -15.56979 -15.55191 -11.35586
 Alpha  occ. eigenvalues --  -11.31519 -11.27280 -11.27158 -11.25205 -11.24032
 Alpha  occ. eigenvalues --  -11.23091 -11.22902  -1.37331  -1.27560  -1.22810
 Alpha  occ. eigenvalues --   -1.18138  -1.08566  -1.03121  -0.99835  -0.92133
 Alpha  occ. eigenvalues --   -0.85841  -0.82066  -0.78549  -0.71403  -0.70392
 Alpha  occ. eigenvalues --   -0.68511  -0.65416  -0.64503  -0.62494  -0.60988
 Alpha  occ. eigenvalues --   -0.59324  -0.57726  -0.56812  -0.55949  -0.55026
 Alpha  occ. eigenvalues --   -0.53984  -0.53244  -0.49856  -0.45140  -0.41924
 Alpha  occ. eigenvalues --   -0.41428  -0.38768  -0.37160  -0.29965
 Alpha virt. eigenvalues --    0.12743   0.15415   0.19580   0.21613   0.23274
 Alpha virt. eigenvalues --    0.25949   0.26759   0.27838   0.30303   0.30835
 Alpha virt. eigenvalues --    0.31314   0.32958   0.33887   0.34507   0.35401

 Mulliken atomic charges:
              1
     1  C   -0.145895
     2  C   -0.295467
     3  C    0.061296
     4  C   -0.068753
     5  C    0.573853
     6  C    0.761662
     7  C   -0.575386
     8  C   -0.164740
     9  N   -0.619488
    10  N   -0.896917
    11  N   -0.787461
    12  O   -0.636098
    13  H    0.257409
    14  H    0.205777
    15  H    0.194231
    16  H    0.205857
    17  H    0.210835
    18  H    0.168911
    19  H    0.231609
    20  H    0.186449
    21  H    0.367329
    22  H    0.382580
    23  H    0.382407
 Sum of Mulliken atomic charges =   0.00000

 Dipole moment (field-independent basis, Debye):
    X=             -0.3981    Y=              0.5673    Z=              1.6520  Tot=              1.7915
 Quadrupole moment (field-independent basis, Debye-Ang):
   XX=            -63.9186   YY=            -67.0716   ZZ=            -74.0609
   XY=             10.9213   XZ=             13.6796   YZ=             -0.4318

 Normal termination of Gaussian 09 at Sat Feb 17 21:06:31 2018.
