 Gaussian 09, Revision C.01,
 Gaussian 09:  AM64L-G09RevC.01 23-Sep-2011

 ---------------------------------------------------------
 #B3LYP/6-31G* Integral=(Grid=UltraFine) freq Opt pop=none
 ---------------------------------------------------------

 99/9=1/99;
 -----------------------------
 Optimization for frag53-conf2
 -----------------------------
 Charge =  0 Multiplicity = 1

 SCF Done:  E(RB3LYP) =  -550.971533756     A.U. after   15 cycles
 SCF Done:  E(RB3LYP) =  -550.975376801     A.U. after   13 cycles
 SCF Done:  E(RB3LYP) =  -550.975924437     A.U. after   12 cycles
 SCF Done:  E(RB3LYP) =  -550.975928655     A.U. after   12 cycles
 SCF Done:  E(RB3LYP) =  -550.976203790     A.U. after   11 cycles
 SCF Done:  E(RB3LYP) =  -550.976251504     A.U. after   11 cycles
 SCF Done:  E(RB3LYP) =  -550.976280829     A.U. after   11 cycles
 SCF Done:  E(RB3LYP) =  -550.976296417     A.U. after   10 cycles
 SCF Done:  E(RB3LYP) =  -550.976329577     A.U. after   10 cycles
 SCF Done:  E(RB3LYP) =  -550.976350029     A.U. after   10 cycles
 SCF Done:  E(RB3LYP) =  -550.976376856     A.U. after   11 cycles
 SCF Done:  E(RB3LYP) =  -550.976393954     A.U. after   11 cycles
 SCF Done:  E(RB3LYP) =  -550.976401322     A.U. after   10 cycles
 SCF Done:  E(RB3LYP) =  -550.976404309     A.U. after   10 cycles
 SCF Done:  E(RB3LYP) =  -550.976404504     A.U. after    8 cycles
 SCF Done:  E(RB3LYP) =  -550.976404536     A.U. after    7 cycles
 SCF Done:  E(RB3LYP) =  -550.976404544     A.U. after    7 cycles
 Optimization completed.
    -- Stationary point found.
 Normal termination of Gaussian 09 at Fri Feb 16 21:43:02 2018.

 --------------------------------------------------------------------
 #N Geom=AllCheck Guess=TCheck SCRF=Check GenChk RB3LYP/6-31G(d) Freq
 --------------------------------------------------------------------

 Structure from the checkpoint file:  frag53-conf2.chk
 -----------------------------
 Optimization for frag53-conf2
 -----------------------------
 Charge =  0 Multiplicity = 1

                         Standard orientation:
 ---------------------------------------------------------------------
 Center     Atomic      Atomic             Coordinates (Angstroms)
 Number     Number       Type             X           Y           Z
 ---------------------------------------------------------------------
      1          6           0       -0.583251   -0.733364   -0.568764
      2          6           0       -1.841527   -1.229934   -0.277928
      3          6           0       -1.370263    1.427001    0.054164
      4          6           0       -0.315851    0.637327   -0.399828
      5          6           0       -2.832803   -0.333384    0.178204
      6          6           0        2.885877   -0.264138    0.052371
      7          6           0        3.847531   -0.599467    1.183391
      8          6           0        1.048413    1.221743   -0.690844
      9          7           0       -2.599676    0.976951    0.335021
     10          7           0       -4.094877   -0.779046    0.534782
     11          7           0        2.084704    0.824226    0.263826
     12          8           0        2.849368   -0.924831   -0.981043
     13          1           0        0.203621   -1.392372   -0.926481
     14          1           0       -2.067934   -2.286461   -0.394299
     15          1           0       -1.223799    2.499364    0.193648
     16          1           0        3.596794   -1.588670    1.580170
     17          1           0        4.860219   -0.659878    0.774366
     18          1           0        3.836978    0.125307    2.003538
     19          1           0        1.408068    0.896525   -1.670451
     20          1           0        0.993343    2.316218   -0.697830
     21          1           0       -4.433150   -1.610682    0.069848
     22          1           0       -4.780352   -0.037473    0.605939
     23          1           0        2.051459    1.227147    1.189883
 ---------------------------------------------------------------------

 SCF Done:  E(RB3LYP) =  -550.976404544     A.U. after    1 cycles

 Isotropic polarizability for W=    0.000000      104.11 Bohr**3.
 End of Minotr Frequency-dependent properties file   721 does not exist.

                     1                      2                      3
                     A                      A                      A
 Frequencies --    34.0243                49.1144                56.6407
 Red. masses --     3.1425                 1.6634                 4.5880
 Frc consts  --     0.0021                 0.0024                 0.0087
 IR Inten    --     1.6716                 4.8146                15.3480

                     4                      5                      6
                     A                      A                      A
 Frequencies --    66.0646               130.6298               207.1579
 Red. masses --     2.1545                 4.1045                 5.8298
 Frc consts  --     0.0055                 0.0413                 0.1474
 IR Inten    --     1.3275                 3.0913                 3.4931

                     7                      8                      9
                     A                      A                      A
 Frequencies --   241.2746               323.6678               348.6522
 Red. masses --     5.1019                 2.1875                 3.3009
 Frc consts  --     0.1750                 0.1350                 0.2364
 IR Inten    --     4.3154                 6.3267                10.5750

                    10                     11                     12
                     A                      A                      A
 Frequencies --   376.7845               419.6992               426.3455
 Red. masses --     1.1635                 2.6811                 3.4089
 Frc consts  --     0.0973                 0.2783                 0.3651
 IR Inten    --    47.8844                 3.5774                 4.2910

                    13                     14                     15
                     A                      A                      A
 Frequencies --   453.8731               464.5475               511.6231
 Red. masses --     1.3142                 3.0203                 2.2660
 Frc consts  --     0.1595                 0.3840                 0.3495
 IR Inten    --   116.3372                11.6493                49.8882

                    16                     17                     18
                     A                      A                      A
 Frequencies --   557.9702               609.0453               616.8719
 Red. masses --     2.2992                 2.5518                 2.4180
 Frc consts  --     0.4217                 0.5577                 0.5421
 IR Inten    --   238.4312                65.0871                19.0817

                    19                     20                     21
                     A                      A                      A
 Frequencies --   656.0369               661.0509               761.0805
 Red. masses --     3.0534                 5.5110                 4.6013
 Frc consts  --     0.7743                 1.4189                 1.5703
 IR Inten    --     5.2585                 5.3409                 2.6981

                    22                     23                     24
                     A                      A                      A
 Frequencies --   804.6252               844.3084               855.2730
 Red. masses --     4.7990                 1.6164                 2.6162
 Frc consts  --     1.8306                 0.6789                 1.1275
 IR Inten    --    31.1939                25.3886                 1.0673

                    25                     26                     27
                     A                      A                      A
 Frequencies --   878.0362               953.5106               996.6367
 Red. masses --     5.2481                 1.4172                 1.5610
 Frc consts  --     2.3838                 0.7591                 0.9136
 IR Inten    --     3.6341                 3.1502                 1.5990

                    28                     29                     30
                     A                      A                      A
 Frequencies --  1006.0692              1026.4624              1046.8892
 Red. masses --     1.4070                 2.8017                 2.7401
 Frc consts  --     0.8391                 1.7392                 1.7694
 IR Inten    --     2.6962                 0.2871                15.8151

                    31                     32                     33
                     A                      A                      A
 Frequencies --  1067.5437              1094.6342              1097.5633
 Red. masses --     1.7045                 2.4225                 1.7528
 Frc consts  --     1.1445                 1.7102                 1.2441
 IR Inten    --     7.9044                24.8480                 3.3467

                    34                     35                     36
                     A                      A                      A
 Frequencies --  1178.6114              1249.0317              1268.1429
 Red. masses --     1.2078                 2.8420                 1.5290
 Frc consts  --     0.9886                 2.6123                 1.4487
 IR Inten    --    18.5346                 5.3977                44.0224

                    37                     38                     39
                     A                      A                      A
 Frequencies --  1294.6709              1346.2727              1353.8498
 Red. masses --     1.8429                 3.2052                 2.3454
 Frc consts  --     1.8200                 3.4227                 2.5329
 IR Inten    --   111.0596                16.5687                69.5283

                    40                     41                     42
                     A                      A                      A
 Frequencies --  1367.6950              1400.0601              1425.8913
 Red. masses --     1.5048                 1.3282                 1.2639
 Frc consts  --     1.6585                 1.5339                 1.5140
 IR Inten    --     0.5452                40.7498                21.1421

                    43                     44                     45
                     A                      A                      A
 Frequencies --  1458.3946              1498.4781              1501.3493
 Red. masses --     3.0208                 1.0991                 1.0523
 Frc consts  --     3.7856                 1.4540                 1.3975
 IR Inten    --    57.9195                19.2298                 2.8528

                    46                     47                     48
                     A                      A                      A
 Frequencies --  1515.3398              1547.0552              1555.2987
 Red. masses --     1.0681                 2.6054                 1.8947
 Frc consts  --     1.4451                 3.6740                 2.7003
 IR Inten    --    18.0694                91.0716               249.7928

                    49                     50                     51
                     A                      A                      A
 Frequencies --  1620.8966              1659.4424              1680.4215
 Red. masses --     5.8426                 1.7817                 2.3107
 Frc consts  --     9.0442                 2.8908                 3.8445
 IR Inten    --    24.9182                 7.1634               279.4271

                    52                     53                     54
                     A                      A                      A
 Frequencies --  1774.8334              3063.8154              3068.1447
 Red. masses --     8.9091                 1.0357                 1.0651
 Frc consts  --    16.5347                 5.7280                 5.9075
 IR Inten    --   204.3872                 8.6552                32.3374

                    55                     56                     57
                     A                      A                      A
 Frequencies --  3130.9099              3136.1079              3143.6759
 Red. masses --     1.0995                 1.1027                 1.0898
 Frc consts  --     6.3499                 6.3901                 6.3458
 IR Inten    --     1.0920                14.1499                39.8049

                    58                     59                     60
                     A                      A                      A
 Frequencies --  3145.0477              3187.8897              3208.3457
 Red. masses --     1.1021                 1.0888                 1.0950
 Frc consts  --     6.4228                 6.5195                 6.6407
 IR Inten    --    11.5293                11.4231                 4.5018

                    61                     62                     63
                     A                      A                      A
 Frequencies --  3564.2576              3620.0836              3675.2603
 Red. masses --     1.0469                 1.0776                 1.1000
 Frc consts  --     7.8360                 8.3204                 8.7544
 IR Inten    --    34.0035                15.1654                19.5418

 - Thermochemistry -
 -------------------
 Temperature   298.150 Kelvin.  Pressure   1.00000 Atm.
 Atom     1 has atomic number  6 and mass  12.00000

 Molecular mass:   165.09021 amu.
 Principal axes and moments of inertia in atomic units:
                           1         2         3
     Eigenvalues --   767.599414100.204214405.56783
           X            0.99989   0.00701   0.01329
           Y           -0.00674   0.99976  -0.02092
           Z           -0.01343   0.02083   0.99969
 This molecule is an asymmetric top.
 Rotational symmetry number  1.
 Warning -- assumption of classical behavior for rotation
           may cause significant error
 Rotational temperatures (Kelvin)      0.11284     0.02112     0.01966
 Rotational constants (GHZ):           2.35115     0.44016     0.40965
 Zero-point vibrational energy     498142.8 (Joules/Mol)
                                  119.05900 (Kcal/Mol)
 Warning -- explicit consideration of  18 degrees of freedom as
           vibrations may cause significant error
 Vibrational temperatures:     48.95    70.66    81.49    95.05   187.95
          (Kelvin)            298.05   347.14   465.69   501.63   542.11
                              603.85   613.42   653.02   668.38   736.11
                              802.79   876.28   887.54   943.89   951.10
                             1095.02  1157.67  1214.77  1230.55  1263.30
                             1371.89  1433.94  1447.51  1476.85  1506.24
                             1535.96  1574.93  1579.15  1695.76  1797.08
                             1824.57  1862.74  1936.98  1947.89  1967.81
                             2014.37  2051.54  2098.30  2155.97  2160.10
                             2180.23  2225.86  2237.73  2332.11  2387.56
                             2417.75  2553.59  4408.14  4414.37  4504.68
                             4512.15  4523.04  4525.02  4586.66  4616.09
                             5128.17  5208.49  5287.87

 Zero-point correction=                           0.189733 (Hartree/Particle)
 Thermal correction to Energy=                    0.201512
 Thermal correction to Enthalpy=                  0.202457
 Thermal correction to Gibbs Free Energy=         0.150306
 Sum of electronic and zero-point Energies=           -550.786672
 Sum of electronic and thermal Energies=              -550.774892
 Sum of electronic and thermal Enthalpies=            -550.773948
 Sum of electronic and thermal Free Energies=         -550.826098

                     E (Thermal)             CV                S
                      KCal/Mol        Cal/Mol-Kelvin    Cal/Mol-Kelvin
 Total                  126.451             43.465            109.760
 Electronic               0.000              0.000              0.000
 Translational            0.889              2.981             41.212
 Rotational               0.889              2.981             31.006
 Vibrational            124.673             37.503             37.541
 Vibration     1          0.594              1.983              5.580
 Vibration     2          0.595              1.978              4.853
 Vibration     3          0.596              1.975              4.571
 Vibration     4          0.597              1.970              4.267
 Vibration     5          0.612              1.923              2.937
 Vibration     6          0.641              1.830              2.069
 Vibration     7          0.658              1.777              1.793
 Vibration     8          0.708              1.628              1.292
 Vibration     9          0.726              1.578              1.172
 Vibration    10          0.747              1.520              1.052
 Vibration    11          0.782              1.427              0.893
 Vibration    12          0.788              1.413              0.871
 Vibration    13          0.812              1.352              0.784
 Vibration    14          0.822              1.329              0.753
 Vibration    15          0.867              1.224              0.630
 Vibration    16          0.914              1.122              0.528
 Vibration    17          0.968              1.013              0.434
 Vibration    18          0.977              0.996              0.422

 Normal termination of Gaussian 09 at Fri Feb 16 21:56:58 2018.
