 Gaussian 09, Revision C.01,
 Gaussian 09:  AM64L-G09RevC.01 23-Sep-2011

 ---------------------------------------------------------
 #B3LYP/6-31G* Integral=(Grid=UltraFine) freq Opt pop=none
 ---------------------------------------------------------

 99/9=1/99;
 -----------------------------
 Optimization for frag49-conf2
 -----------------------------
 Charge =  0 Multiplicity = 1

 SCF Done:  E(RB3LYP) =  -456.532940886     A.U. after   14 cycles
 SCF Done:  E(RB3LYP) =  -456.535368913     A.U. after   12 cycles
 SCF Done:  E(RB3LYP) =  -456.535545650     A.U. after   11 cycles
 SCF Done:  E(RB3LYP) =  -456.535525101     A.U. after   10 cycles
 SCF Done:  E(RB3LYP) =  -456.535577509     A.U. after   10 cycles
 SCF Done:  E(RB3LYP) =  -456.535591197     A.U. after    9 cycles
 SCF Done:  E(RB3LYP) =  -456.535636213     A.U. after   10 cycles
 SCF Done:  E(RB3LYP) =  -456.535676327     A.U. after   11 cycles
 SCF Done:  E(RB3LYP) =  -456.535715827     A.U. after   10 cycles
 SCF Done:  E(RB3LYP) =  -456.535753036     A.U. after   11 cycles
 SCF Done:  E(RB3LYP) =  -456.536169780     A.U. after    8 cycles
 SCF Done:  E(RB3LYP) =  -456.536170677     A.U. after    8 cycles
 SCF Done:  E(RB3LYP) =  -456.536171513     A.U. after    9 cycles
 SCF Done:  E(RB3LYP) =  -456.536171962     A.U. after    8 cycles
 SCF Done:  E(RB3LYP) =  -456.536172175     A.U. after    8 cycles
 SCF Done:  E(RB3LYP) =  -456.536172285     A.U. after    8 cycles
 SCF Done:  E(RB3LYP) =  -456.536172401     A.U. after    8 cycles
 SCF Done:  E(RB3LYP) =  -456.536172620     A.U. after    8 cycles
 SCF Done:  E(RB3LYP) =  -456.536172651     A.U. after    8 cycles
 Optimization completed.
    -- Stationary point found.
 Normal termination of Gaussian 09 at Fri Feb 16 21:37:57 2018.

 --------------------------------------------------------------------
 #N Geom=AllCheck Guess=TCheck SCRF=Check GenChk RB3LYP/6-31G(d) Freq
 --------------------------------------------------------------------

 Structure from the checkpoint file:  frag49-conf2.chk
 -----------------------------
 Optimization for frag49-conf2
 -----------------------------
 Charge =  0 Multiplicity = 1

                         Standard orientation:
 ---------------------------------------------------------------------
 Center     Atomic      Atomic             Coordinates (Angstroms)
 Number     Number       Type             X           Y           Z
 ---------------------------------------------------------------------
      1          6           0        2.339364   -0.175695   -0.000016
      2          6           0       -1.358801    0.155232   -0.000037
      3          6           0        3.406747    0.908423    0.000072
      4          6           0       -3.825283   -0.019001    0.000064
      5          6           0       -0.057546   -0.652846   -0.000018
      6          7           0       -2.491692   -0.596645    0.000012
      7          7           0        1.051860    0.265779    0.000029
      8          8           0        2.616303   -1.371415   -0.000053
      9          8           0       -1.354823    1.383155   -0.000107
     10          1           0        4.042137    0.778643    0.881682
     11          1           0        4.042497    0.778434   -0.881244
     12          1           0        3.000653    1.924634   -0.000119
     13          1           0       -4.386152   -0.321015    0.892024
     14          1           0       -4.386374   -0.321420   -0.891618
     15          1           0       -3.711555    1.065524   -0.000185
     16          1           0       -0.020677   -1.311714    0.879150
     17          1           0       -0.020643   -1.311689   -0.879204
     18          1           0       -2.400438   -1.603210    0.000127
     19          1           0        0.800651    1.247279   -0.000014
 ---------------------------------------------------------------------

 SCF Done:  E(RB3LYP) =  -456.536172651     A.U. after    1 cycles

 Isotropic polarizability for W=    0.000000       71.35 Bohr**3.
 End of Minotr Frequency-dependent properties file   721 does not exist.

                     1                      2                      3
                     A                      A                      A
 Frequencies --    21.6818                42.3907                56.3491
 Red. masses --     3.5296                 3.8756                 1.1541
 Frc consts  --     0.0010                 0.0041                 0.0022
 IR Inten    --     0.1316                 6.8008                 3.2896

                     4                      5                      6
                     A                      A                      A
 Frequencies --    72.0301               111.9882               140.7799
 Red. masses --     1.1457                 4.0238                 3.1008
 Frc consts  --     0.0035                 0.0297                 0.0362
 IR Inten    --     0.0966                14.4400                 4.2234

                     7                      8                      9
                     A                      A                      A
 Frequencies --   173.3611               249.1793               287.7580
 Red. masses --     2.3829                 4.6754                 5.2673
 Frc consts  --     0.0422                 0.1710                 0.2570
 IR Inten    --    18.4192                 5.9744                 2.6035

                    10                     11                     12
                     A                      A                      A
 Frequencies --   376.0880               449.6241               490.8787
 Red. masses --     4.1710                 1.3158                 3.3669
 Frc consts  --     0.3476                 0.1567                 0.4780
 IR Inten    --    23.8673                66.8712                10.4780

                    13                     14                     15
                     A                      A                      A
 Frequencies --   510.6505               608.8982               622.3031
 Red. masses --     1.3055                 2.0488                 4.9744
 Frc consts  --     0.2006                 0.4475                 1.1350
 IR Inten    --   109.7425                 0.0565                 9.5837

                    16                     17                     18
                     A                      A                      A
 Frequencies --   648.6743               700.7126               895.5911
 Red. masses --     1.8565                 3.8875                 3.3898
 Frc consts  --     0.4603                 1.1246                 1.6020
 IR Inten    --     4.2541                 0.6654                 3.6034

                    19                     20                     21
                     A                      A                      A
 Frequencies --   993.1506              1009.3898              1018.1024
 Red. masses --     2.8078                 2.0027                 2.0551
 Frc consts  --     1.6317                 1.2022                 1.2551
 IR Inten    --    17.1244                10.3302                 0.7838

                    22                     23                     24
                     A                      A                      A
 Frequencies --  1067.6690              1070.6340              1162.6960
 Red. masses --     3.7945                 1.7057                 1.2730
 Frc consts  --     2.5485                 1.1520                 1.0140
 IR Inten    --     5.3297                 9.6156                 0.7811

                    25                     26                     27
                     A                      A                      A
 Frequencies --  1176.4583              1189.1427              1246.3986
 Red. masses --     1.9503                 3.0513                 1.0871
 Frc consts  --     1.5904                 2.5422                 0.9950
 IR Inten    --    32.1829                21.6927                 0.0330

                    28                     29                     30
                     A                      A                      A
 Frequencies --  1252.2359              1278.7346              1386.5241
 Red. masses --     1.6426                 1.7541                 1.6813
 Frc consts  --     1.5176                 1.6900                 1.9044
 IR Inten    --   107.2593                18.9184                44.9509

                    31                     32                     33
                     A                      A                      A
 Frequencies --  1427.2264              1463.1404              1502.3808
 Red. masses --     1.2796                 1.1743                 1.0458
 Frc consts  --     1.5357                 1.4812                 1.3908
 IR Inten    --    19.9088                20.1284                 5.3802

                    34                     35                     36
                     A                      A                      A
 Frequencies --  1510.7127              1522.9167              1528.0466
 Red. masses --     1.1279                 1.1699                 1.0910
 Frc consts  --     1.5166                 1.5987                 1.5009
 IR Inten    --   100.6094               108.9536                11.2854

                    37                     38                     39
                     A                      A                      A
 Frequencies --  1529.2842              1549.4341              1595.9149
 Red. masses --     1.0443                 2.1634                 1.8174
 Frc consts  --     1.4390                 3.0601                 2.7272
 IR Inten    --     7.3199               348.0708               127.3691

                    40                     41                     42
                     A                      A                      A
 Frequencies --  1771.5071              1788.9366              3030.2370
 Red. masses --    10.4048                 8.2492                 1.0582
 Frc consts  --    19.2384                15.5544                 5.7248
 IR Inten    --   369.3606                86.7361                31.8693

                    43                     44                     45
                     A                      A                      A
 Frequencies --  3051.7447              3052.8773              3064.8184
 Red. masses --     1.0368                 1.1040                 1.0352
 Frc consts  --     5.6893                 6.0623                 5.7293
 IR Inten    --    56.2585                17.3041                 7.7566

                    46                     47                     48
                     A                      A                      A
 Frequencies --  3104.8795              3139.2422              3141.7368
 Red. masses --     1.1063                 1.1010                 1.1044
 Frc consts  --     6.2836                 6.3929                 6.4225
 IR Inten    --    31.4428                 7.6638                19.9980

                    49                     50                     51
                     A                      A                      A
 Frequencies --  3180.6957              3591.6277              3617.4354
 Red. masses --     1.0984                 1.0777                 1.0774
 Frc consts  --     6.5473                 8.1911                 8.3069
 IR Inten    --     0.9004                91.6981                24.8310

 - Thermochemistry -
 -------------------
 Temperature   298.150 Kelvin.  Pressure   1.00000 Atm.
 Atom     1 has atomic number  6 and mass  12.00000

 Molecular mass:   130.07423 amu.
 Principal axes and moments of inertia in atomic units:
                           1         2         3
     Eigenvalues --   359.302602678.913223004.45316
           X            0.99971   0.02411   0.00000
           Y           -0.02411   0.99971   0.00000
           Z            0.00000   0.00000   1.00000
 This molecule is an asymmetric top.
 Rotational symmetry number  1.
 Rotational temperatures (Kelvin)      0.24106     0.03233     0.02883
 Rotational constants (GHZ):           5.02290     0.67368     0.60069
 Zero-point vibrational energy     415552.0 (Joules/Mol)
                                   99.31931 (Kcal/Mol)
 Warning -- explicit consideration of  14 degrees of freedom as
           vibrations may cause significant error
 Vibrational temperatures:     31.20    60.99    81.07   103.64   161.13
          (Kelvin)            202.55   249.43   358.51   414.02   541.11
                              646.91   706.26   734.71   876.07   895.35
                              933.30  1008.17  1288.55  1428.92  1452.28
                             1464.82  1536.14  1540.40  1672.86  1692.66
                             1710.91  1793.29  1801.69  1839.81  1994.90
                             2053.46  2105.13  2161.59  2173.58  2191.13
                             2198.52  2200.30  2229.29  2296.16  2548.80
                             2573.88  4359.83  4390.77  4392.40  4409.58
                             4467.22  4516.66  4520.25  4576.31  5167.54
                             5204.68

 Zero-point correction=                           0.158275 (Hartree/Particle)
 Thermal correction to Energy=                    0.169327
 Thermal correction to Enthalpy=                  0.170271
 Thermal correction to Gibbs Free Energy=         0.119191
 Sum of electronic and zero-point Energies=           -456.377897
 Sum of electronic and thermal Energies=              -456.366846
 Sum of electronic and thermal Enthalpies=            -456.365902
 Sum of electronic and thermal Free Energies=         -456.416981

                     E (Thermal)             CV                S
                      KCal/Mol        Cal/Mol-Kelvin    Cal/Mol-Kelvin
 Total                  106.254             36.411            107.506
 Electronic               0.000              0.000              0.000
 Translational            0.889              2.981             40.502
 Rotational               0.889              2.981             29.449
 Vibrational            104.477             30.449             37.556
 Vibration     1          0.593              1.985              6.474
 Vibration     2          0.595              1.980              5.144
 Vibration     3          0.596              1.975              4.581
 Vibration     4          0.598              1.967              4.097
 Vibration     5          0.607              1.940              3.234
 Vibration     6          0.615              1.913              2.793
 Vibration     7          0.627              1.875              2.399
 Vibration     8          0.662              1.764              1.736
 Vibration     9          0.685              1.696              1.487
 Vibration    10          0.747              1.521              1.055
 Vibration    11          0.809              1.362              0.797
 Vibration    12          0.847              1.270              0.681
 Vibration    13          0.866              1.226              0.632
 Vibration    14          0.968              1.013              0.435

 Optimization completed.
    -- Stationary point found.
 Normal termination of Gaussian 09 at Fri Feb 16 21:45:27 2018.
