 Gaussian 09, Revision C.01,
 Gaussian 09:  AM64L-G09RevC.01 23-Sep-2011

 ----------------------------------------------------------------------
 #HF/6-31G* Geom=AllCheck Guess=Read Pop=(MK,ReadRadii) Integral=(Grid=
 UltraFine) iop(6/33=2)
 ----------------------------------------------------------------------

 Structure from the checkpoint file:  frag49-conf2.chk
 -----------------------------
 Optimization for frag49-conf2
 -----------------------------
 Charge =  0 Multiplicity = 1

                         Standard orientation:
 ---------------------------------------------------------------------
 Center     Atomic      Atomic             Coordinates (Angstroms)
 Number     Number       Type             X           Y           Z
 ---------------------------------------------------------------------
      1          6           0        2.339364   -0.175695   -0.000016
      2          6           0       -1.358801    0.155232   -0.000037
      3          6           0        3.406747    0.908423    0.000072
      4          6           0       -3.825283   -0.019001    0.000064
      5          6           0       -0.057546   -0.652846   -0.000018
      6          7           0       -2.491692   -0.596645    0.000012
      7          7           0        1.051860    0.265779    0.000029
      8          8           0        2.616303   -1.371415   -0.000053
      9          8           0       -1.354823    1.383155   -0.000107
     10          1           0        4.042137    0.778643    0.881682
     11          1           0        4.042497    0.778434   -0.881244
     12          1           0        3.000653    1.924634   -0.000119
     13          1           0       -4.386152   -0.321015    0.892024
     14          1           0       -4.386374   -0.321420   -0.891618
     15          1           0       -3.711555    1.065524   -0.000185
     16          1           0       -0.020677   -1.311714    0.879150
     17          1           0       -0.020643   -1.311689   -0.879204
     18          1           0       -2.400438   -1.603210    0.000127
     19          1           0        0.800651    1.247279   -0.000014
 ---------------------------------------------------------------------

 SCF Done:  E(RHF) =  -453.819591767     A.U. after   13 cycles

 The electronic state is 1-A.
 Alpha  occ. eigenvalues --  -20.54172 -20.51592 -15.60521 -15.58487 -11.37032
 Alpha  occ. eigenvalues --  -11.34959 -11.28454 -11.27150 -11.23455  -1.39369
 Alpha  occ. eigenvalues --   -1.36760  -1.24199  -1.22641  -1.02959  -0.98387
 Alpha  occ. eigenvalues --   -0.92645  -0.80381  -0.78984  -0.72373  -0.66714
 Alpha  occ. eigenvalues --   -0.65973  -0.65625  -0.63119  -0.62100  -0.58987
 Alpha  occ. eigenvalues --   -0.58366  -0.56300  -0.55711  -0.54898  -0.53240
 Alpha  occ. eigenvalues --   -0.49395  -0.43907  -0.41288  -0.40604  -0.38280
 Alpha virt. eigenvalues --    0.18100   0.20561   0.20957   0.23850   0.25981
 Alpha virt. eigenvalues --    0.26792   0.28469   0.30885   0.31259   0.33292
 Alpha virt. eigenvalues --    0.33715   0.34994   0.35217   0.39288   0.41214

 Mulliken atomic charges:
              1
     1  C    0.767668
     2  C    0.767017
     3  C   -0.575007
     4  C   -0.289135
     5  C   -0.164830
     6  N   -0.802688
     7  N   -0.833101
     8  O   -0.634889
     9  O   -0.642767
    10  H    0.205713
    11  H    0.205715
    12  H    0.174779
    13  H    0.174489
    14  H    0.174491
    15  H    0.232445
    16  H    0.210162
    17  H    0.210171
    18  H    0.390500
    19  H    0.429265
 Sum of Mulliken atomic charges =   0.00000

 Dipole moment (field-independent basis, Debye):
    X=             -2.9607    Y=             -0.1065    Z=              0.0004  Tot=              2.9626
 Quadrupole moment (field-independent basis, Debye-Ang):
   XX=            -48.3190   YY=            -58.3129   ZZ=            -53.7874
   XY=             16.1760   XZ=             -0.0003   YZ=             -0.0002

 Normal termination of Gaussian 09 at Sat Feb 17 21:05:01 2018.
