 Gaussian 09, Revision C.01,
 Gaussian 09:  AM64L-G09RevC.01 23-Sep-2011

 ----------------------------------------------------------------------
 #HF/6-31G* Geom=AllCheck Guess=Read Pop=(MK,ReadRadii) Integral=(Grid=
 UltraFine) iop(6/33=2)
 ----------------------------------------------------------------------

 Structure from the checkpoint file:  frag38-conf1.chk
 -----------------------------
 Optimization for frag38-conf1
 -----------------------------
 Charge =  0 Multiplicity = 1

                         Standard orientation:
 ---------------------------------------------------------------------
 Center     Atomic      Atomic             Coordinates (Angstroms)
 Number     Number       Type             X           Y           Z
 ---------------------------------------------------------------------
      1          6           0        1.496259    0.439014   -0.094605
      2          6           0       -1.580499   -0.969927   -0.093025
      3          6           0       -0.373159    2.259172   -0.214313
      4          6           0       -1.632844    1.583175    0.396868
      5          6           0        0.119945    0.856214   -0.645545
      6          6           0       -2.972256   -1.169071    0.479073
      7          6           0        2.970001   -1.451488    0.383328
      8          7           0       -1.064137    0.276859    0.022974
      9          7           0        1.719480   -0.894215   -0.101984
     10          8           0        2.311539    1.276375    0.283908
     11          8           0       -0.948855   -1.884803   -0.634061
     12          1           0       -0.573561    2.952296   -1.032850
     13          1           0        0.299074    2.725228    0.506612
     14          1           0       -1.771318    1.713810    1.476268
     15          1           0       -2.576487    1.810240   -0.113991
     16          1           0        0.100738    0.670549   -1.728041
     17          1           0       -3.724686   -0.737809   -0.192932
     18          1           0       -3.084411   -0.687632    1.456359
     19          1           0       -3.161235   -2.239396    0.572615
     20          1           0        3.798629   -1.231790   -0.300592
     21          1           0        2.861415   -2.534793    0.471693
     22          1           0        3.223814   -1.031747    1.362025
     23          1           0        0.954469   -1.502577   -0.393555
 ---------------------------------------------------------------------

 SCF Done:  E(RHF) =  -530.692476815     A.U. after   14 cycles

 The electronic state is 1-A.
 Alpha  occ. eigenvalues --  -20.53796 -20.51725 -15.60211 -15.57003 -11.36825
 Alpha  occ. eigenvalues --  -11.34229 -11.29002 -11.28962 -11.25030 -11.24879
 Alpha  occ. eigenvalues --  -11.24548  -1.38777  -1.36499  -1.27773  -1.21196
 Alpha  occ. eigenvalues --   -1.06820  -0.99572  -0.98277  -0.92383  -0.84069
 Alpha  occ. eigenvalues --   -0.78966  -0.74991  -0.71703  -0.68993  -0.65757
 Alpha  occ. eigenvalues --   -0.63191  -0.62783  -0.61130  -0.60472  -0.58003
 Alpha  occ. eigenvalues --   -0.57367  -0.55819  -0.54391  -0.54290  -0.52483
 Alpha  occ. eigenvalues --   -0.51148  -0.50800  -0.48389  -0.43213  -0.42285
 Alpha  occ. eigenvalues --   -0.37721  -0.37277
 Alpha virt. eigenvalues --    0.16925   0.19470   0.21837   0.23645   0.25425
 Alpha virt. eigenvalues --    0.26566   0.27610   0.28447   0.30681   0.30804
 Alpha virt. eigenvalues --    0.32010   0.32282   0.33818   0.35420   0.36066

 Mulliken atomic charges:
              1
     1  C    0.767272
     2  C    0.767447
     3  C   -0.389481
     4  C   -0.088457
     5  C   -0.017513
     6  C   -0.583464
     7  C   -0.266844
     8  N   -0.686128
     9  N   -0.829390
    10  O   -0.638018
    11  O   -0.661645
    12  H    0.191291
    13  H    0.237128
    14  H    0.188568
    15  H    0.178400
    16  H    0.218328
    17  H    0.197122
    18  H    0.191044
    19  H    0.219884
    20  H    0.177061
    21  H    0.170755
    22  H    0.187464
    23  H    0.469175
 Sum of Mulliken atomic charges =   0.00000

 Dipole moment (field-independent basis, Debye):
    X=             -4.1855    Y=              0.6341    Z=              0.3861  Tot=              4.2508
 Quadrupole moment (field-independent basis, Debye-Ang):
   XX=            -63.6531   YY=            -68.9856   ZZ=            -64.8685
   XY=            -10.5578   XZ=             -3.0154   YZ=             -4.4667

 Normal termination of Gaussian 09 at Sat Feb 17 21:03:10 2018.
