 Gaussian 09, Revision C.01,
 Gaussian 09:  AM64L-G09RevC.01 23-Sep-2011

 ---------------------------------------------------------
 #B3LYP/6-31G* Integral=(Grid=UltraFine) freq Opt pop=none
 ---------------------------------------------------------

 99/9=1/99;
 -----------------------------
 Optimization for frag38-conf1
 -----------------------------
 Charge =  0 Multiplicity = 1

 SCF Done:  E(RB3LYP) =  -533.910848773     A.U. after   15 cycles
 SCF Done:  E(RB3LYP) =  -533.918131012     A.U. after   13 cycles
 SCF Done:  E(RB3LYP) =  -533.919682626     A.U. after   13 cycles
 SCF Done:  E(RB3LYP) =  -533.923077900     A.U. after   15 cycles
 SCF Done:  E(RB3LYP) =  -533.925273068     A.U. after   13 cycles
 SCF Done:  E(RB3LYP) =  -533.915980328     A.U. after   13 cycles
 SCF Done:  E(RB3LYP) =  -533.926645120     A.U. after   13 cycles
 SCF Done:  E(RB3LYP) =  -533.927808899     A.U. after   13 cycles
 SCF Done:  E(RB3LYP) =  -533.928214180     A.U. after   11 cycles
 SCF Done:  E(RB3LYP) =  -533.928489412     A.U. after   12 cycles
 SCF Done:  E(RB3LYP) =  -533.928646304     A.U. after    9 cycles
 SCF Done:  E(RB3LYP) =  -533.928647256     A.U. after    8 cycles
 SCF Done:  E(RB3LYP) =  -533.928648571     A.U. after    8 cycles
 SCF Done:  E(RB3LYP) =  -533.928650489     A.U. after    9 cycles
 SCF Done:  E(RB3LYP) =  -533.928652441     A.U. after    9 cycles
 SCF Done:  E(RB3LYP) =  -533.928653226     A.U. after    8 cycles
 SCF Done:  E(RB3LYP) =  -533.928653733     A.U. after    7 cycles
 SCF Done:  E(RB3LYP) =  -533.928654556     A.U. after    9 cycles
 SCF Done:  E(RB3LYP) =  -533.928654803     A.U. after    8 cycles
 Optimization completed.
    -- Stationary point found.
 Normal termination of Gaussian 09 at Fri Feb 16 20:53:54 2018.

 --------------------------------------------------------------------
 #N Geom=AllCheck Guess=TCheck SCRF=Check GenChk RB3LYP/6-31G(d) Freq
 --------------------------------------------------------------------

 Structure from the checkpoint file:  frag38-conf1.chk
 -----------------------------
 Optimization for frag38-conf1
 -----------------------------
 Charge =  0 Multiplicity = 1

                         Standard orientation:
 ---------------------------------------------------------------------
 Center     Atomic      Atomic             Coordinates (Angstroms)
 Number     Number       Type             X           Y           Z
 ---------------------------------------------------------------------
      1          6           0        1.496259    0.439014   -0.094605
      2          6           0       -1.580499   -0.969927   -0.093025
      3          6           0       -0.373159    2.259172   -0.214313
      4          6           0       -1.632844    1.583175    0.396868
      5          6           0        0.119945    0.856214   -0.645545
      6          6           0       -2.972256   -1.169071    0.479073
      7          6           0        2.970001   -1.451488    0.383328
      8          7           0       -1.064137    0.276859    0.022974
      9          7           0        1.719480   -0.894215   -0.101984
     10          8           0        2.311539    1.276375    0.283908
     11          8           0       -0.948855   -1.884803   -0.634061
     12          1           0       -0.573561    2.952296   -1.032850
     13          1           0        0.299074    2.725228    0.506612
     14          1           0       -1.771318    1.713810    1.476268
     15          1           0       -2.576487    1.810240   -0.113991
     16          1           0        0.100738    0.670549   -1.728041
     17          1           0       -3.724686   -0.737809   -0.192932
     18          1           0       -3.084411   -0.687632    1.456359
     19          1           0       -3.161235   -2.239396    0.572615
     20          1           0        3.798629   -1.231790   -0.300592
     21          1           0        2.861415   -2.534793    0.471693
     22          1           0        3.223814   -1.031747    1.362025
     23          1           0        0.954469   -1.502577   -0.393555
 ---------------------------------------------------------------------

 SCF Done:  E(RB3LYP) =  -533.928654803     A.U. after    1 cycles

 Isotropic polarizability for W=    0.000000       89.21 Bohr**3.
 End of Minotr Frequency-dependent properties file   721 does not exist.

 ******    1 imaginary frequencies (negative Signs) ******

                     1                      2                      3
                     A                      A                      A
 Frequencies --   -46.7841                58.4705                62.7709
 Red. masses --     1.0431                 1.0613                 5.9780
 Frc consts  --     0.0013                 0.0021                 0.0139
 IR Inten    --     0.1633                 0.9438                 3.3422

                     4                      5                      6
                     A                      A                      A
 Frequencies --    75.7553               104.2357               138.9826
 Red. masses --     2.9498                 3.3425                 3.5539
 Frc consts  --     0.0100                 0.0214                 0.0404
 IR Inten    --     4.5600                 1.8394                 1.1336

                     7                      8                      9
                     A                      A                      A
 Frequencies --   150.0265               172.0113               209.0620
 Red. masses --     3.3697                 3.1321                 4.0872
 Frc consts  --     0.0447                 0.0546                 0.1053
 IR Inten    --     6.9127                10.3740                 1.9079

                    10                     11                     12
                     A                      A                      A
 Frequencies --   293.5293               316.1764               355.9245
 Red. masses --     4.0616                 4.2444                 4.2720
 Frc consts  --     0.2062                 0.2500                 0.3189
 IR Inten    --    12.8958                10.0606                 4.8321

                    13                     14                     15
                     A                      A                      A
 Frequencies --   486.3279               523.4316               586.8332
 Red. masses --     4.0142                 5.3287                 3.2283
 Frc consts  --     0.5594                 0.8602                 0.6550
 IR Inten    --    19.4143                12.8346                 2.6495

                    16                     17                     18
                     A                      A                      A
 Frequencies --   601.0815               664.0248               702.2072
 Red. masses --     3.3202                 3.6508                 1.1743
 Frc consts  --     0.7068                 0.9484                 0.3412
 IR Inten    --    13.8938                 3.0746                84.1112

                    19                     20                     21
                     A                      A                      A
 Frequencies --   778.6999               807.7713               857.6572
 Red. masses --     3.3837                 1.2798                 2.2150
 Frc consts  --     1.2089                 0.4920                 0.9600
 IR Inten    --     1.3462                 2.0164                 1.4668

                    22                     23                     24
                     A                      A                      A
 Frequencies --   920.0287               951.6013               980.4360
 Red. masses --     3.9755                 2.5914                 2.2406
 Frc consts  --     1.9826                 1.3826                 1.2690
 IR Inten    --     4.2369                 2.7988                 5.6928

                    25                     26                     27
                     A                      A                      A
 Frequencies --  1001.5790              1063.8177              1084.5828
 Red. masses --     2.2410                 1.7291                 2.3130
 Frc consts  --     1.3245                 1.1529                 1.6030
 IR Inten    --     9.5047                 7.7769                 2.1668

                    28                     29                     30
                     A                      A                      A
 Frequencies --  1104.7896              1126.0703              1161.4856
 Red. masses --     2.2831                 2.8044                 1.3445
 Frc consts  --     1.6419                 2.0951                 1.0687
 IR Inten    --     2.4400                 1.2022                 6.6555

                    31                     32                     33
                     A                      A                      A
 Frequencies --  1165.8003              1187.2294              1207.0350
 Red. masses --     1.2958                 3.1799                 1.7746
 Frc consts  --     1.0376                 2.6408                 1.5233
 IR Inten    --     5.0983                26.9757                 0.4622

                    34                     35                     36
                     A                      A                      A
 Frequencies --  1224.7685              1264.9372              1284.3290
 Red. masses --     1.1710                 1.4441                 1.8634
 Frc consts  --     1.0349                 1.3614                 1.8110
 IR Inten    --     1.4912                 5.5066                35.0907

                    37                     38                     39
                     A                      A                      A
 Frequencies --  1304.0946              1333.2909              1375.0622
 Red. masses --     1.7521                 1.4722                 1.6782
 Frc consts  --     1.7556                 1.5420                 1.8695
 IR Inten    --    21.1368                 7.7130                 1.4361

                    40                     41                     42
                     A                      A                      A
 Frequencies --  1411.6900              1466.2932              1476.2724
 Red. masses --     1.3190                 3.9399                 1.1820
 Frc consts  --     1.5487                 4.9909                 1.5178
 IR Inten    --    17.0838               272.5018                15.9047

                    43                     44                     45
                     A                      A                      A
 Frequencies --  1499.5052              1509.3539              1512.2302
 Red. masses --     1.1254                 1.0469                 1.0848
 Frc consts  --     1.4909                 1.4052                 1.4616
 IR Inten    --    12.6624                 5.2346                20.3472

                    46                     47                     48
                     A                      A                      A
 Frequencies --  1524.1335              1540.4285              1547.6210
 Red. masses --     1.1264                 1.0569                 1.1096
 Frc consts  --     1.5417                 1.4777                 1.5658
 IR Inten    --     3.8583                 1.8286                 3.6078

                    49                     50                     51
                     A                      A                      A
 Frequencies --  1616.1630              1729.1751              1780.0376
 Red. masses --     1.7249                 9.1173                 9.0920
 Frc consts  --     2.6545                16.0618                16.9734
 IR Inten    --   248.9855               227.7774               296.2995

                    52                     53                     54
                     A                      A                      A
 Frequencies --  3044.5571              3049.6746              3052.8152
 Red. masses --     1.0789                 1.0620                 1.0367
 Frc consts  --     5.8921                 5.8192                 5.6925
 IR Inten    --    42.4030                33.7250                48.0831

                    55                     56                     57
                     A                      A                      A
 Frequencies --  3057.0008              3092.5290              3110.0465
 Red. masses --     1.0399                 1.1113                 1.1013
 Frc consts  --     5.7258                 6.2620                 6.2761
 IR Inten    --     6.6089                25.7417                25.8327

                    58                     59                     60
                     A                      A                      A
 Frequencies --  3118.5525              3120.2303              3153.1643
 Red. masses --     1.0991                 1.0607                 1.1038
 Frc consts  --     6.2978                 6.0842                 6.4659
 IR Inten    --    10.1712                22.3312                16.9700

                    61                     62                     63
                     A                      A                      A
 Frequencies --  3175.0365              3178.5254              3465.6931
 Red. masses --     1.1011                 1.1088                 1.0827
 Frc consts  --     6.5398                 6.6004                 7.6616
 IR Inten    --     6.1384                 7.2165               250.2508

 - Thermochemistry -
 -------------------
 Temperature   298.150 Kelvin.  Pressure   1.00000 Atm.
 Atom     1 has atomic number  6 and mass  12.00000

 Molecular mass:   156.08988 amu.
 Principal axes and moments of inertia in atomic units:
                           1         2         3
     Eigenvalues --  1148.705242034.580082959.52787
           X            0.99857  -0.05316  -0.00576
           Y            0.05306   0.99846  -0.01605
           Z            0.00661   0.01573   0.99985
 This molecule is an asymmetric top.
 Rotational symmetry number  1.
 Warning -- assumption of classical behavior for rotation
           may cause significant error
 Rotational temperatures (Kelvin)      0.07540     0.04257     0.02927
 Rotational constants (GHZ):           1.57111     0.88703     0.60981
    1 imaginary frequencies ignored.
 Zero-point vibrational energy     507914.3 (Joules/Mol)
                                  121.39444 (Kcal/Mol)
 Warning -- explicit consideration of  15 degrees of freedom as
           vibrations may cause significant error
 Vibrational temperatures:     84.13    90.31   108.99   149.97   199.96
          (Kelvin)            215.85   247.49   300.79   422.32   454.91
                              512.10   699.72   753.10   844.32   864.82
                              955.38  1010.32  1120.37  1162.20  1233.98
                             1323.71  1369.14  1410.63  1441.05  1530.59
                             1560.47  1589.54  1620.16  1671.12  1677.32
                             1708.16  1736.65  1762.17  1819.96  1847.86
                             1876.30  1918.31  1978.41  2031.10  2109.67
                             2124.02  2157.45  2171.62  2175.76  2192.89
                             2216.33  2226.68  2325.30  2487.89  2561.07
                             4380.43  4387.80  4392.31  4398.34  4449.45
                             4474.66  4486.90  4489.31  4536.69  4568.16
                             4573.18  4986.35

 Zero-point correction=                           0.193454 (Hartree/Particle)
 Thermal correction to Energy=                    0.204762
 Thermal correction to Enthalpy=                  0.205706
 Thermal correction to Gibbs Free Energy=         0.155288
 Sum of electronic and zero-point Energies=           -533.735200
 Sum of electronic and thermal Energies=              -533.723893
 Sum of electronic and thermal Enthalpies=            -533.722949
 Sum of electronic and thermal Free Energies=         -533.773367

                     E (Thermal)             CV                S
                      KCal/Mol        Cal/Mol-Kelvin    Cal/Mol-Kelvin
 Total                  128.490             39.804            106.114
 Electronic               0.000              0.000              0.000
 Translational            0.889              2.981             41.045
 Rotational               0.889              2.981             30.315
 Vibrational            126.713             33.842             34.753
 Vibration     1          0.596              1.974              4.508
 Vibration     2          0.597              1.972              4.368
 Vibration     3          0.599              1.965              3.998
 Vibration     4          0.605              1.946              3.374
 Vibration     5          0.615              1.914              2.818
 Vibration     6          0.618              1.903              2.672
 Vibration     7          0.626              1.877              2.413
 Vibration     8          0.642              1.827              2.052
 Vibration     9          0.688              1.686              1.454
 Vibration    10          0.703              1.643              1.330
 Vibration    11          0.731              1.563              1.140
 Vibration    12          0.842              1.280              0.693
 Vibration    13          0.878              1.198              0.602
 Vibration    14          0.944              1.060              0.473
 Vibration    15          0.959              1.030              0.448

 Normal termination of Gaussian 09 at Fri Feb 16 21:10:07 2018.
