 Gaussian 09, Revision C.01,
 Gaussian 09:  AM64L-G09RevC.01 23-Sep-2011

 ----------------------------------------------------------------------
 #HF/6-31G* Geom=AllCheck Guess=Read Pop=(MK,ReadRadii) Integral=(Grid=
 UltraFine) iop(6/33=2)
 ----------------------------------------------------------------------

 Structure from the checkpoint file:  frag27-conf2.chk
 -----------------------------
 Optimization for frag27-conf2
 -----------------------------
 Charge =  1 Multiplicity = 1

                         Standard orientation:
 ---------------------------------------------------------------------
 Center     Atomic      Atomic             Coordinates (Angstroms)
 Number     Number       Type             X           Y           Z
 ---------------------------------------------------------------------
      1          6           0       -1.467905    1.729006    0.637713
      2          6           0       -2.706603    1.098641    0.549012
      3          6           0       -1.588094   -0.850428   -0.348225
      4          6           0       -0.278942    1.096309    0.248592
      5          6           0       -0.341172   -0.226084   -0.256604
      6          6           0       -2.758067   -0.200048    0.051802
      7          6           0        3.165067   -0.832458    0.106286
      8          6           0        4.226551   -1.486516    0.954848
      9          6           0        0.852906   -1.016761   -0.781777
     10          6           0        0.997271    1.876164    0.458241
     11          7           0        1.908885   -1.331775    0.184395
     12          7           0        1.773978    2.132456   -0.830189
     13          8           0        3.450410    0.125237   -0.640049
     14         17           0       -4.284017   -1.026918   -0.078026
     15          1           0       -1.428996    2.741463    1.031453
     16          1           0       -3.612379    1.607209    0.859655
     17          1           0       -1.658592   -1.860431   -0.739646
     18          1           0        4.910636   -2.030509    0.293912
     19          1           0        4.811229   -0.714689    1.461659
     20          1           0        3.822522   -2.184528    1.692485
     21          1           0        0.483176   -1.964151   -1.184645
     22          1           0        1.340441   -0.507999   -1.618180
     23          1           0        0.768667    2.850813    0.891134
     24          1           0        1.708477    1.370794    1.115804
     25          1           0        1.748409   -2.116006    0.803846
     26          1           0        1.145919    2.285978   -1.625058
     27          1           0        2.420723    1.290332   -0.993142
     28          1           0        2.378668    2.955732   -0.741209
 ---------------------------------------------------------------------

 SCF Done:  E(RHF) =  -1029.89245860     A.U. after   14 cycles

 The electronic state is 1-A.
 Alpha  occ. eigenvalues -- -104.93288 -20.68802 -15.83548 -15.74882 -11.51555
 Alpha  occ. eigenvalues --  -11.45717 -11.43051 -11.42605 -11.40010 -11.39900
 Alpha  occ. eigenvalues --  -11.38584 -11.37902 -11.37464 -11.36643 -10.66594
 Alpha  occ. eigenvalues --   -8.13532  -8.13179  -8.13177  -1.53628  -1.45002
 Alpha  occ. eigenvalues --   -1.38678  -1.31476  -1.25068  -1.19310  -1.16406
 Alpha  occ. eigenvalues --   -1.14397  -1.08588  -1.05778  -0.97313  -0.94849
 Alpha  occ. eigenvalues --   -0.93976  -0.92397  -0.90558  -0.83274  -0.82522
 Alpha  occ. eigenvalues --   -0.81368  -0.79138  -0.78315  -0.77794  -0.75006
 Alpha  occ. eigenvalues --   -0.73195  -0.72231  -0.71415  -0.70504  -0.69724
 Alpha  occ. eigenvalues --   -0.68549  -0.66105  -0.65636  -0.63980  -0.63303
 Alpha  occ. eigenvalues --   -0.58688  -0.57852  -0.55954  -0.54971  -0.47512
 Alpha  occ. eigenvalues --   -0.45808
 Alpha virt. eigenvalues --   -0.02733  -0.00192   0.03235   0.04699   0.07353
 Alpha virt. eigenvalues --    0.08968   0.09498   0.11857   0.13020   0.14039
 Alpha virt. eigenvalues --    0.15436   0.16581   0.16785   0.17774   0.18795

 Mulliken atomic charges:
              1
     1  C   -0.207293
     2  C   -0.175328
     3  C   -0.213034
     4  C   -0.027196
     5  C    0.057051
     6  C   -0.125788
     7  C    0.784272
     8  C   -0.581123
     9  C   -0.206813
    10  C   -0.228158
    11  N   -0.774629
    12  N   -0.914914
    13  O   -0.720932
    14  Cl   0.069210
    15  H    0.237995
    16  H    0.269186
    17  H    0.254917
    18  H    0.246037
    19  H    0.232510
    20  H    0.200463
    21  H    0.240260
    22  H    0.218089
    23  H    0.249794
    24  H    0.254754
    25  H    0.420412
    26  H    0.444432
    27  H    0.544336
    28  H    0.451492
 Sum of Mulliken atomic charges =   1.00000

 Dipole moment (field-independent basis, Debye):
    X=              6.5764    Y=              4.0595    Z=             -0.0394  Tot=              7.7286
 Quadrupole moment (field-independent basis, Debye-Ang):
   XX=            -68.4133   YY=            -55.6266   ZZ=            -83.5653
   XY=             -1.6646   XZ=              2.6440   YZ=             -3.7370

 Normal termination of Gaussian 09 at Sat Feb 17 21:01:19 2018.
