 Gaussian 09, Revision C.01,
 Gaussian 09:  AM64L-G09RevC.01 23-Sep-2011

 ---------------------------------------------------------
 #B3LYP/6-31G* Integral=(Grid=UltraFine) freq Opt pop=none
 ---------------------------------------------------------

 99/9=1/99;
 -----------------------------
 Optimization for frag27-conf2
 -----------------------------
 Charge =  1 Multiplicity = 1

 SCF Done:  E(RB3LYP) =  -1034.18842902     A.U. after   15 cycles
 SCF Done:  E(RB3LYP) =  -1034.19544545     A.U. after   13 cycles
 SCF Done:  E(RB3LYP) =  -1034.19853256     A.U. after   13 cycles
 SCF Done:  E(RB3LYP) =  -1034.20404220     A.U. after   15 cycles
 SCF Done:  E(RB3LYP) =  -1034.20789185     A.U. after   13 cycles
 SCF Done:  E(RB3LYP) =  -1034.21431410     A.U. after   14 cycles
 SCF Done:  E(RB3LYP) =  -1034.20391984     A.U. after   14 cycles
 SCF Done:  E(RB3LYP) =  -1034.21660128     A.U. after   13 cycles
 SCF Done:  E(RB3LYP) =  -1034.21823300     A.U. after   12 cycles
 SCF Done:  E(RB3LYP) =  -1034.22042679     A.U. after   12 cycles
 SCF Done:  E(RB3LYP) =  -1034.22300236     A.U. after   10 cycles
 SCF Done:  E(RB3LYP) =  -1034.22312250     A.U. after   11 cycles
 SCF Done:  E(RB3LYP) =  -1034.22320652     A.U. after   11 cycles
 SCF Done:  E(RB3LYP) =  -1034.22323825     A.U. after   10 cycles
 SCF Done:  E(RB3LYP) =  -1034.22325115     A.U. after   10 cycles
 SCF Done:  E(RB3LYP) =  -1034.22325901     A.U. after   10 cycles
 SCF Done:  E(RB3LYP) =  -1034.22326005     A.U. after    8 cycles
 SCF Done:  E(RB3LYP) =  -1034.22326027     A.U. after    7 cycles
 SCF Done:  E(RB3LYP) =  -1034.22326034     A.U. after    7 cycles
 Optimization completed.
    -- Stationary point found.
 Normal termination of Gaussian 09 at Fri Feb 16 21:08:12 2018.

 --------------------------------------------------------------------
 #N Geom=AllCheck Guess=TCheck SCRF=Check GenChk RB3LYP/6-31G(d) Freq
 --------------------------------------------------------------------

 Structure from the checkpoint file:  frag27-conf2.chk
 -----------------------------
 Optimization for frag27-conf2
 -----------------------------
 Charge =  1 Multiplicity = 1

                         Standard orientation:
 ---------------------------------------------------------------------
 Center     Atomic      Atomic             Coordinates (Angstroms)
 Number     Number       Type             X           Y           Z
 ---------------------------------------------------------------------
      1          6           0       -1.467905    1.729006    0.637713
      2          6           0       -2.706603    1.098641    0.549012
      3          6           0       -1.588094   -0.850428   -0.348225
      4          6           0       -0.278942    1.096309    0.248592
      5          6           0       -0.341172   -0.226084   -0.256604
      6          6           0       -2.758067   -0.200048    0.051802
      7          6           0        3.165067   -0.832458    0.106286
      8          6           0        4.226551   -1.486516    0.954848
      9          6           0        0.852906   -1.016761   -0.781777
     10          6           0        0.997271    1.876164    0.458241
     11          7           0        1.908885   -1.331775    0.184395
     12          7           0        1.773978    2.132456   -0.830189
     13          8           0        3.450410    0.125237   -0.640049
     14         17           0       -4.284017   -1.026918   -0.078026
     15          1           0       -1.428996    2.741463    1.031453
     16          1           0       -3.612379    1.607209    0.859655
     17          1           0       -1.658592   -1.860431   -0.739646
     18          1           0        4.910636   -2.030509    0.293912
     19          1           0        4.811229   -0.714689    1.461659
     20          1           0        3.822522   -2.184528    1.692485
     21          1           0        0.483176   -1.964151   -1.184645
     22          1           0        1.340441   -0.507999   -1.618180
     23          1           0        0.768667    2.850813    0.891134
     24          1           0        1.708477    1.370794    1.115804
     25          1           0        1.748409   -2.116006    0.803846
     26          1           0        1.145919    2.285978   -1.625058
     27          1           0        2.420723    1.290332   -0.993142
     28          1           0        2.378668    2.955732   -0.741209
 ---------------------------------------------------------------------

 SCF Done:  E(RB3LYP) =  -1034.22326034     A.U. after    1 cycles

 Isotropic polarizability for W=    0.000000      130.48 Bohr**3.
 End of Minotr Frequency-dependent properties file   721 does not exist.

                     1                      2                      3
                     A                      A                      A
 Frequencies --    40.8061                72.5876                84.5367
 Red. masses --     4.6579                 1.8399                 1.5816
 Frc consts  --     0.0046                 0.0057                 0.0067
 IR Inten    --     2.4530                 0.4837                 0.8916

                     4                      5                      6
                     A                      A                      A
 Frequencies --    99.9178               125.8328               166.9247
 Red. masses --     3.8291                 4.5637                 6.8971
 Frc consts  --     0.0225                 0.0426                 0.1132
 IR Inten    --    12.3444                 3.4631                 4.6522

                     7                      8                      9
                     A                      A                      A
 Frequencies --   186.0355               207.5189               239.8404
 Red. masses --     4.7588                 3.7659                 3.0109
 Frc consts  --     0.0970                 0.0956                 0.1020
 IR Inten    --     1.1538                10.3094                10.8474

                    10                     11                     12
                     A                      A                      A
 Frequencies --   274.7155               307.6120               324.6842
 Red. masses --     4.0142                 4.1847                 2.3787
 Frc consts  --     0.1785                 0.2333                 0.1477
 IR Inten    --    44.5507                18.1701                 2.6099

                    13                     14                     15
                     A                      A                      A
 Frequencies --   349.0227               389.9638               421.3891
 Red. masses --     5.9265                 1.2060                 3.6862
 Frc consts  --     0.4254                 0.1081                 0.3857
 IR Inten    --     9.3826                 0.4667                 5.2510

                    16                     17                     18
                     A                      A                      A
 Frequencies --   447.4346               455.4957               501.4781
 Red. masses --     3.6260                 2.6616                 3.2891
 Frc consts  --     0.4277                 0.3254                 0.4873
 IR Inten    --     5.1477                 1.9971                48.3099

                    19                     20                     21
                     A                      A                      A
 Frequencies --   561.5262               574.1448               628.4558
 Red. masses --     2.2248                 2.5518                 3.3770
 Frc consts  --     0.4133                 0.4956                 0.7858
 IR Inten    --    23.4532                50.5789                 7.3373

                    22                     23                     24
                     A                      A                      A
 Frequencies --   647.0912               659.5683               682.1217
 Red. masses --     4.6769                 1.9657                 4.0545
 Frc consts  --     1.1538                 0.5038                 1.1115
 IR Inten    --    12.4775                 7.2225                21.5548

                    25                     26                     27
                     A                      A                      A
 Frequencies --   723.3593               762.3816               843.5275
 Red. masses --     4.4959                 3.6325                 1.3572
 Frc consts  --     1.3861                 1.2440                 0.5690
 IR Inten    --     1.2880                 5.3905                25.1951

                    28                     29                     30
                     A                      A                      A
 Frequencies --   873.7012               893.0190               907.0663
 Red. masses --     2.6667                 2.5254                 1.6084
 Frc consts  --     1.1994                 1.1866                 0.7797
 IR Inten    --     3.3893                15.0934                27.5978

                    31                     32                     33
                     A                      A                      A
 Frequencies --   913.7383               941.7998               974.3351
 Red. masses --     2.3675                 2.5216                 1.3422
 Frc consts  --     1.1646                 1.3178                 0.7507
 IR Inten    --     3.0982                48.8999                 1.9206

                    34                     35                     36
                     A                      A                      A
 Frequencies --  1019.9205              1041.9112              1074.5020
 Red. masses --     1.7335                 2.6435                 1.7524
 Frc consts  --     1.0625                 1.6908                 1.1920
 IR Inten    --     4.7799                27.1043                 9.0245

                    37                     38                     39
                     A                      A                      A
 Frequencies --  1098.1807              1104.5566              1123.6933
 Red. masses --     2.6800                 1.9749                 1.3872
 Frc consts  --     1.9043                 1.4196                 1.0320
 IR Inten    --     8.0727                 6.2935                20.6099

                    40                     41                     42
                     A                      A                      A
 Frequencies --  1140.6948              1177.9113              1214.5708
 Red. masses --     1.9933                 1.7816                 1.9159
 Frc consts  --     1.5281                 1.4565                 1.6652
 IR Inten    --    62.9523                18.8809                 7.9909

                    43                     44                     45
                     A                      A                      A
 Frequencies --  1247.5368              1281.7800              1308.2681
 Red. masses --     2.3748                 1.3096                 1.6608
 Frc consts  --     2.1776                 1.2677                 1.6748
 IR Inten    --    26.3144                 5.4357                93.3896

                    46                     47                     48
                     A                      A                      A
 Frequencies --  1323.1702              1344.2101              1361.6426
 Red. masses --     2.0907                 1.4780                 1.6531
 Frc consts  --     2.1566                 1.5735                 1.8058
 IR Inten    --    20.7344                24.0878                25.6314

                    49                     50                     51
                     A                      A                      A
 Frequencies --  1402.9061              1424.6645              1433.7124
 Red. masses --     1.3456                 1.3597                 1.2620
 Frc consts  --     1.5604                 1.6260                 1.5284
 IR Inten    --    14.4373                61.4388                23.0542

                    52                     53                     54
                     A                      A                      A
 Frequencies --  1448.5002              1491.4556              1509.8637
 Red. masses --     2.6025                 1.0544                 1.1497
 Frc consts  --     3.2171                 1.3820                 1.5442
 IR Inten    --    22.9317                24.0259                47.0180

                    55                     56                     57
                     A                      A                      A
 Frequencies --  1513.4119              1524.2477              1539.4392
 Red. masses --     1.0978                 1.1523                 2.0042
 Frc consts  --     1.4814                 1.5773                 2.7984
 IR Inten    --     6.1040                32.6657                22.5686

                    58                     59                     60
                     A                      A                      A
 Frequencies --  1559.8860              1581.2121              1614.7077
 Red. masses --     1.2080                 1.9632                 6.3464
 Frc consts  --     1.7319                 2.8920                 9.7491
 IR Inten    --   308.2026               178.9023                21.3442

                    61                     62                     63
                     A                      A                      A
 Frequencies --  1647.8909              1653.8259              1716.1884
 Red. masses --     3.3122                 1.4636                 2.1737
 Frc consts  --     5.2993                 2.3586                 3.7721
 IR Inten    --    86.0941                20.9838               155.4371

                    64                     65                     66
                     A                      A                      A
 Frequencies --  1730.5946              2654.8165              3073.7259
 Red. masses --     1.1823                 1.0946                 1.0369
 Frc consts  --     2.0863                 4.5453                 5.7716
 IR Inten    --    75.9787              1231.8043                 0.9738

                    67                     68                     69
                     A                      A                      A
 Frequencies --  3086.3761              3114.9276              3126.3492
 Red. masses --     1.0607                 1.0604                 1.1044
 Frc consts  --     5.9531                 6.0618                 6.3600
 IR Inten    --     9.5754                 6.3810                 4.2561

                    70                     71                     72
                     A                      A                      A
 Frequencies --  3143.6858              3165.7558              3167.5304
 Red. masses --     1.0999                 1.1052                 1.1084
 Frc consts  --     6.4042                 6.5261                 6.5521
 IR Inten    --     2.5444                 4.2663                 1.1802

                    73                     74                     75
                     A                      A                      A
 Frequencies --  3194.0572              3214.1933              3237.2193
 Red. masses --     1.0904                 1.0916                 1.0941
 Frc consts  --     6.5541                 6.6442                 6.7556
 IR Inten    --     5.8788                 0.2788                 0.1914

                    76                     77                     78
                     A                      A                      A
 Frequencies --  3442.7978              3513.6049              3609.9501
 Red. masses --     1.0532                 1.0945                 1.0784
 Frc consts  --     7.3551                 7.9613                 8.2799
 IR Inten    --    67.0717                66.7821                41.3514

 - Thermochemistry -
 -------------------
 Temperature   298.150 Kelvin.  Pressure   1.00000 Atm.
 Atom     1 has atomic number  6 and mass  12.00000

 Molecular mass:   213.07947 amu.
 Principal axes and moments of inertia in atomic units:
                           1         2         3
     Eigenvalues --  1480.779936027.123097023.95872
           X            0.99987  -0.01572   0.00431
           Y            0.01575   0.99986  -0.00551
           Z           -0.00422   0.00558   0.99998
 This molecule is an asymmetric top.
 Rotational symmetry number  1.
 Warning -- assumption of classical behavior for rotation
           may cause significant error
 Rotational temperatures (Kelvin)      0.05849     0.01437     0.01233
 Rotational constants (GHZ):           1.21878     0.29944     0.25694
 Zero-point vibrational energy     620154.1 (Joules/Mol)
                                  148.22040 (Kcal/Mol)
 Warning -- explicit consideration of  20 degrees of freedom as
           vibrations may cause significant error
 Vibrational temperatures:     58.71   104.44   121.63   143.76   181.05
          (Kelvin)            240.17   267.66   298.57   345.08   395.25
                              442.58   467.15   502.17   561.07   606.28
                              643.76   655.36   721.51   807.91   826.07
                              904.21   931.02   948.97   981.42  1040.75
                             1096.90  1213.65  1257.06  1284.85  1305.06
                             1314.66  1355.04  1401.85  1467.44  1499.08
                             1545.97  1580.04  1589.21  1616.74  1641.20
                             1694.75  1747.49  1794.92  1844.19  1882.30
                             1903.74  1934.02  1959.10  2018.47  2049.77
                             2062.79  2084.07  2145.87  2172.35  2177.46
                             2193.05  2214.91  2244.33  2275.01  2323.20
                             2370.94  2379.48  2469.21  2489.94  3819.68
                             4422.40  4440.60  4481.68  4498.11  4523.06
                             4554.81  4557.36  4595.53  4624.50  4657.63
                             4953.41  5055.29  5193.91

 Zero-point correction=                           0.236204 (Hartree/Particle)
 Thermal correction to Energy=                    0.249894
 Thermal correction to Enthalpy=                  0.250838
 Thermal correction to Gibbs Free Energy=         0.195249
 Sum of electronic and zero-point Energies=          -1033.987056
 Sum of electronic and thermal Energies=             -1033.973366
 Sum of electronic and thermal Enthalpies=           -1033.972422
 Sum of electronic and thermal Free Energies=        -1034.028011

                     E (Thermal)             CV                S
                      KCal/Mol        Cal/Mol-Kelvin    Cal/Mol-Kelvin
 Total                  156.811             51.788            116.997
 Electronic               0.000              0.000              0.000
 Translational            0.889              2.981             41.973
 Rotational               0.889              2.981             32.505
 Vibrational            155.033             45.826             42.519
 Vibration     1          0.594              1.981              5.220
 Vibration     2          0.599              1.967              4.082
 Vibration     3          0.601              1.960              3.783
 Vibration     4          0.604              1.949              3.456
 Vibration     5          0.611              1.927              3.009
 Vibration     6          0.624              1.883              2.470
 Vibration     7          0.632              1.859              2.267
 Vibration     8          0.641              1.829              2.065
 Vibration     9          0.657              1.779              1.804
 Vibration    10          0.677              1.720              1.566
 Vibration    11          0.697              1.659              1.375
 Vibration    12          0.709              1.626              1.286
 Vibration    13          0.726              1.577              1.171
 Vibration    14          0.758              1.492              1.000
 Vibration    15          0.784              1.424              0.887
 Vibration    16          0.807              1.367              0.804
 Vibration    17          0.814              1.349              0.779
 Vibration    18          0.857              1.247              0.654
 Vibration    19          0.917              1.115              0.521
 Vibration    20          0.930              1.087              0.496

 Optimization completed.
    -- Stationary point found.
 Normal termination of Gaussian 09 at Fri Feb 16 21:41:01 2018.
