 Gaussian 09, Revision C.01,
 Gaussian 09:  AM64L-G09RevC.01 23-Sep-2011

 ---------------------------------------------------------
 #B3LYP/6-31G* Integral=(Grid=UltraFine) freq Opt pop=none
 ---------------------------------------------------------

 99/9=1/99;
 -----------------------------
 Optimization for frag19-conf1
 -----------------------------
 Charge =  1 Multiplicity = 1

 SCF Done:  E(RB3LYP) =  -535.303287000     A.U. after   17 cycles
 SCF Done:  E(RB3LYP) =  -535.308550092     A.U. after   14 cycles
 SCF Done:  E(RB3LYP) =  -535.309470216     A.U. after   12 cycles
 SCF Done:  E(RB3LYP) =  -535.309858394     A.U. after   12 cycles
 SCF Done:  E(RB3LYP) =  -535.310055571     A.U. after   12 cycles
 SCF Done:  E(RB3LYP) =  -535.310181771     A.U. after   12 cycles
 SCF Done:  E(RB3LYP) =  -535.310306758     A.U. after   12 cycles
 SCF Done:  E(RB3LYP) =  -535.310390684     A.U. after   11 cycles
 SCF Done:  E(RB3LYP) =  -535.310430236     A.U. after   11 cycles
 SCF Done:  E(RB3LYP) =  -535.310439286     A.U. after   10 cycles
 SCF Done:  E(RB3LYP) =  -535.310483294     A.U. after    8 cycles
 SCF Done:  E(RB3LYP) =  -535.310483608     A.U. after    7 cycles
 SCF Done:  E(RB3LYP) =  -535.310484191     A.U. after    8 cycles
 SCF Done:  E(RB3LYP) =  -535.310486007     A.U. after   10 cycles
 SCF Done:  E(RB3LYP) =  -535.310489120     A.U. after   10 cycles
 SCF Done:  E(RB3LYP) =  -535.310489608     A.U. after    9 cycles
 SCF Done:  E(RB3LYP) =  -535.310489743     A.U. after    8 cycles
 SCF Done:  E(RB3LYP) =  -535.310489746     A.U. after    6 cycles
 SCF Done:  E(RB3LYP) =  -535.310489747     A.U. after    6 cycles
 Optimization completed.
    -- Stationary point found.
 Normal termination of Gaussian 09 at Fri Feb 16 19:25:19 2018.

 --------------------------------------------------------------------
 #N Geom=AllCheck Guess=TCheck SCRF=Check GenChk RB3LYP/6-31G(d) Freq
 --------------------------------------------------------------------

 Structure from the checkpoint file:  frag19-conf1.chk
 -----------------------------
 Optimization for frag19-conf1
 -----------------------------
 Charge =  1 Multiplicity = 1

                         Standard orientation:
 ---------------------------------------------------------------------
 Center     Atomic      Atomic             Coordinates (Angstroms)
 Number     Number       Type             X           Y           Z
 ---------------------------------------------------------------------
      1          6           0        1.331082    1.549115    0.018710
      2          6           0        0.475721   -0.655099   -0.406611
      3          6           0        2.582287    0.996917    0.233538
      4          6           0        1.740669   -1.157960   -0.185700
      5          6           0        0.243624    0.729257   -0.306390
      6          6           0       -2.866135   -0.345754    0.036393
      7          6           0       -4.079109   -0.624836    0.897107
      8          6           0        4.113598   -0.926362    0.383870
      9          6           0       -1.139736    1.299558   -0.573175
     10          7           0        2.776646   -0.337498    0.130976
     11          7           0       -2.157883    0.796706    0.337211
     12          8           0       -2.517122   -1.073157   -0.887626
     13          1           0        1.218527    2.625011    0.103854
     14          1           0       -0.342176   -1.318829   -0.671405
     15          1           0        3.449373    1.594477    0.488030
     16          1           0        1.973025   -2.214218   -0.258545
     17          1           0       -4.980633   -0.385164    0.322099
     18          1           0       -4.112381   -1.691935    1.128333
     19          1           0       -4.095599   -0.048924    1.826911
     20          1           0        4.100976   -1.455100    1.339806
     21          1           0        4.357470   -1.618844   -0.423406
     22          1           0        4.855715   -0.129400    0.413704
     23          1           0       -1.111692    2.390095   -0.506094
     24          1           0       -1.429132    1.024796   -1.594784
     25          1           0       -2.489841    1.409821    1.068742
 ---------------------------------------------------------------------

 SCF Done:  E(RB3LYP) =  -535.310489747     A.U. after    1 cycles

 Isotropic polarizability for W=    0.000000      105.37 Bohr**3.
 End of Minotr Frequency-dependent properties file   721 does not exist.

                     1                      2                      3
                     A                      A                      A
 Frequencies --    23.8424                30.9056                58.8896
 Red. masses --     1.0741                 3.4028                 1.1621
 Frc consts  --     0.0004                 0.0019                 0.0024
 IR Inten    --     0.3620                 0.0919                 1.8910

                     4                      5                      6
                     A                      A                      A
 Frequencies --    67.4749               104.1968               128.5144
 Red. masses --     2.7925                 5.5327                 3.5232
 Frc consts  --     0.0075                 0.0354                 0.0343
 IR Inten    --     6.5353                13.2776                 2.1093

                     7                      8                      9
                     A                      A                      A
 Frequencies --   204.5303               233.5415               312.0693
 Red. masses --     5.1196                 5.0315                 2.5554
 Frc consts  --     0.1262                 0.1617                 0.1466
 IR Inten    --     2.8757                11.7903                 4.0481

                    10                     11                     12
                     A                      A                      A
 Frequencies --   321.4743               402.6248               407.8576
 Red. masses --     3.1033                 2.7464                 2.8177
 Frc consts  --     0.1890                 0.2623                 0.2762
 IR Inten    --     6.9397                 0.0444                 0.0509

                    13                     14                     15
                     A                      A                      A
 Frequencies --   428.2280               456.3153               476.2576
 Red. masses --     1.2339                 2.7396                 3.7823
 Frc consts  --     0.1333                 0.3361                 0.5055
 IR Inten    --    79.0770                 8.1843                 6.7269

                    16                     17                     18
                     A                      A                      A
 Frequencies --   561.9520               631.8086               643.1829
 Red. masses --     3.6709                 2.5763                 3.4133
 Frc consts  --     0.6830                 0.6059                 0.8320
 IR Inten    --    22.2248                 0.6963                 9.1076

                    19                     20                     21
                     A                      A                      A
 Frequencies --   679.7231               724.0050               770.5345
 Red. masses --     6.3927                 3.9952                 3.4152
 Frc consts  --     1.7402                 1.2339                 1.1947
 IR Inten    --     1.0474                 5.2889                12.5417

                    22                     23                     24
                     A                      A                      A
 Frequencies --   845.4937               847.3070               876.6014
 Red. masses --     2.2929                 2.9579                 1.6012
 Frc consts  --     0.9657                 1.2512                 0.7249
 IR Inten    --    12.0486                 2.7236                 3.1869

                    25                     26                     27
                     A                      A                      A
 Frequencies --   892.9032               984.6581              1002.6628
 Red. masses --     1.6702                 1.3563                 1.6051
 Frc consts  --     0.7846                 0.7748                 0.9508
 IR Inten    --    23.4208                 0.5471                 5.4702

                    28                     29                     30
                     A                      A                      A
 Frequencies --  1030.0386              1043.8684              1070.3123
 Red. masses --     1.6151                 1.8777                 1.7348
 Frc consts  --     1.0096                 1.2055                 1.1709
 IR Inten    --     6.5711                 4.0995                11.0107

                    31                     32                     33
                     A                      A                      A
 Frequencies --  1079.5643              1099.9773              1113.1796
 Red. masses --     2.8118                 1.5221                 3.2306
 Frc consts  --     1.9308                 1.0851                 2.3586
 IR Inten    --     2.3692                 1.6593                 5.9284

                    34                     35                     36
                     A                      A                      A
 Frequencies --  1157.6872              1183.7556              1205.8721
 Red. masses --     1.3420                 1.2870                 6.8299
 Frc consts  --     1.0597                 1.0626                 5.8515
 IR Inten    --     3.1986                 7.3255                41.9817

                    37                     38                     39
                     A                      A                      A
 Frequencies --  1230.4874              1254.9257              1272.0722
 Red. masses --     1.9340                 1.3758                 1.7818
 Frc consts  --     1.7253                 1.2765                 1.6987
 IR Inten    --     4.6213                 4.1111                76.4701

                    40                     41                     42
                     A                      A                      A
 Frequencies --  1300.8716              1366.8639              1382.6165
 Red. masses --     1.6403                 2.4440                 1.4316
 Frc consts  --     1.6354                 2.6903                 1.6125
 IR Inten    --    95.1356                 2.5104                 5.7039

                    43                     44                     45
                     A                      A                      A
 Frequencies --  1409.0210              1429.7019              1474.2604
 Red. masses --     1.3098                 1.2396                 1.1937
 Frc consts  --     1.5321                 1.4929                 1.5286
 IR Inten    --    18.7640                20.3388                 1.3524

                    46                     47                     48
                     A                      A                      A
 Frequencies --  1485.1599              1493.7000              1497.2084
 Red. masses --     1.0988                 1.0717                 1.7258
 Frc consts  --     1.4280                 1.4088                 2.2793
 IR Inten    --    11.0310                29.3136                11.0533

                    49                     50                     51
                     A                      A                      A
 Frequencies --  1510.8122              1513.4580              1527.9362
 Red. masses --     1.0538                 1.0688                 1.3550
 Frc consts  --     1.4171                 1.4424                 1.8638
 IR Inten    --    20.3376                18.3940                54.0740

                    52                     53                     54
                     A                      A                      A
 Frequencies --  1539.5985              1559.5358              1615.0820
 Red. masses --     1.7803                 2.0324                 5.3283
 Frc consts  --     2.4864                 2.9125                 8.1889
 IR Inten    --   119.6384                43.8308                15.9929

                    55                     56                     57
                     A                      A                      A
 Frequencies --  1690.1915              1771.5055              3067.2542
 Red. masses --     4.9276                 8.8113                 1.0624
 Frc consts  --     8.2938                16.2920                 5.8889
 IR Inten    --   108.8044               164.2755                12.2951

                    58                     59                     60
                     A                      A                      A
 Frequencies --  3069.9659              3096.8600              3132.7437
 Red. masses --     1.0371                 1.0324                 1.1027
 Frc consts  --     5.7587                 5.8339                 6.3764
 IR Inten    --     2.1658                 2.0384                 7.5590

                    61                     62                     63
                     A                      A                      A
 Frequencies --  3138.4588              3164.9035              3181.4489
 Red. masses --     1.1014                 1.1029                 1.1077
 Frc consts  --     6.3920                 6.5091                 6.6057
 IR Inten    --     6.8345                 4.1378                 0.2292

                    64                     65                     66
                     A                      A                      A
 Frequencies --  3203.0288              3220.2110              3227.7882
 Red. masses --     1.1073                 1.0945                 1.0918
 Frc consts  --     6.6934                 6.6872                 6.7018
 IR Inten    --     0.3767                51.9872                 0.2035

                    67                     68                     69
                     A                      A                      A
 Frequencies --  3249.3001              3255.4681              3626.0685
 Red. masses --     1.0954                 1.0966                 1.0788
 Frc consts  --     6.8139                 6.8473                 8.3576
 IR Inten    --     5.3315                 0.9508                37.0827

 - Thermochemistry -
 -------------------
 Temperature   298.150 Kelvin.  Pressure   1.00000 Atm.
 Atom     1 has atomic number  6 and mass  12.00000

 Molecular mass:   165.10279 amu.
 Principal axes and moments of inertia in atomic units:
                           1         2         3
     Eigenvalues --   758.073834013.713144446.67512
           X            0.99995  -0.00818  -0.00594
           Y            0.00807   0.99980  -0.01814
           Z            0.00609   0.01809   0.99982
 This molecule is an asymmetric top.
 Rotational symmetry number  1.
 Warning -- assumption of classical behavior for rotation
           may cause significant error
 Rotational temperatures (Kelvin)      0.11426     0.02158     0.01948
 Rotational constants (GHZ):           2.38069     0.44964     0.40586
 Zero-point vibrational energy     562605.6 (Joules/Mol)
                                  134.46597 (Kcal/Mol)
 Warning -- explicit consideration of  16 degrees of freedom as
           vibrations may cause significant error
 Vibrational temperatures:     34.30    44.47    84.73    97.08   149.92
          (Kelvin)            184.90   294.27   336.01   449.00   462.53
                              579.29   586.82   616.12   656.54   685.23
                              808.52   909.03   925.40   977.97  1041.68
                             1108.63  1216.48  1219.08  1261.23  1284.69
                             1416.70  1442.61  1481.99  1501.89  1539.94
                             1553.25  1582.62  1601.62  1665.65  1703.16
                             1734.98  1770.39  1805.56  1830.23  1871.66
                             1966.61  1989.27  2027.26  2057.02  2121.13
                             2136.81  2149.10  2154.15  2173.72  2177.53
                             2198.36  2215.14  2243.82  2323.74  2431.81
                             2548.80  4413.09  4416.99  4455.69  4507.31
                             4515.54  4553.58  4577.39  4608.44  4633.16
                             4644.06  4675.01  4683.89  5217.10

 Zero-point correction=                           0.214285 (Hartree/Particle)
 Thermal correction to Energy=                    0.226613
 Thermal correction to Enthalpy=                  0.227557
 Thermal correction to Gibbs Free Energy=         0.173388
 Sum of electronic and zero-point Energies=           -535.096205
 Sum of electronic and thermal Energies=              -535.083877
 Sum of electronic and thermal Enthalpies=            -535.082933
 Sum of electronic and thermal Free Energies=         -535.137101

                     E (Thermal)             CV                S
                      KCal/Mol        Cal/Mol-Kelvin    Cal/Mol-Kelvin
 Total                  142.202             44.311            114.007
 Electronic               0.000              0.000              0.000
 Translational            0.889              2.981             41.213
 Rotational               0.889              2.981             30.982
 Vibrational            140.424             38.349             41.813
 Vibration     1          0.593              1.985              6.285
 Vibration     2          0.594              1.984              5.770
 Vibration     3          0.596              1.974              4.494
 Vibration     4          0.598              1.970              4.226
 Vibration     5          0.605              1.946              3.374
 Vibration     6          0.611              1.925              2.968
 Vibration     7          0.640              1.833              2.092
 Vibration     8          0.654              1.790              1.852
 Vibration     9          0.700              1.651              1.351
 Vibration    10          0.707              1.632              1.303
 Vibration    11          0.768              1.464              0.953
 Vibration    12          0.772              1.453              0.934
 Vibration    13          0.790              1.409              0.864
 Vibration    14          0.815              1.347              0.777
 Vibration    15          0.833              1.303              0.720
 Vibration    16          0.918              1.114              0.520

 Optimization completed.
    -- Stationary point found.
 Normal termination of Gaussian 09 at Fri Feb 16 19:44:08 2018.
