 Gaussian 09, Revision C.01,
 Gaussian 09:  AM64L-G09RevC.01 23-Sep-2011

 ----------------------------------------------------------------------
 #HF/6-31G* Geom=AllCheck Guess=Read Pop=(MK,ReadRadii) Integral=(Grid=
 UltraFine) iop(6/33=2)
 ----------------------------------------------------------------------

 Structure from the checkpoint file:  frag19-conf1.chk
 -----------------------------
 Optimization for frag19-conf1
 -----------------------------
 Charge =  1 Multiplicity = 1

                         Standard orientation:
 ---------------------------------------------------------------------
 Center     Atomic      Atomic             Coordinates (Angstroms)
 Number     Number       Type             X           Y           Z
 ---------------------------------------------------------------------
      1          6           0        1.331082    1.549115    0.018710
      2          6           0        0.475721   -0.655099   -0.406611
      3          6           0        2.582287    0.996917    0.233538
      4          6           0        1.740669   -1.157960   -0.185700
      5          6           0        0.243624    0.729257   -0.306390
      6          6           0       -2.866135   -0.345754    0.036393
      7          6           0       -4.079109   -0.624836    0.897107
      8          6           0        4.113598   -0.926362    0.383870
      9          6           0       -1.139736    1.299558   -0.573175
     10          7           0        2.776646   -0.337498    0.130976
     11          7           0       -2.157883    0.796706    0.337211
     12          8           0       -2.517122   -1.073157   -0.887626
     13          1           0        1.218527    2.625011    0.103854
     14          1           0       -0.342176   -1.318829   -0.671405
     15          1           0        3.449373    1.594477    0.488030
     16          1           0        1.973025   -2.214218   -0.258545
     17          1           0       -4.980633   -0.385164    0.322099
     18          1           0       -4.112381   -1.691935    1.128333
     19          1           0       -4.095599   -0.048924    1.826911
     20          1           0        4.100976   -1.455100    1.339806
     21          1           0        4.357470   -1.618844   -0.423406
     22          1           0        4.855715   -0.129400    0.413704
     23          1           0       -1.111692    2.390095   -0.506094
     24          1           0       -1.429132    1.024796   -1.594784
     25          1           0       -2.489841    1.409821    1.068742
 ---------------------------------------------------------------------

 SCF Done:  E(RHF) =  -531.962417073     A.U. after   14 cycles

 The electronic state is 1-A.
 Alpha  occ. eigenvalues --  -20.64350 -15.84568 -15.71815 -11.48512 -11.47705
 Alpha  occ. eigenvalues --  -11.47383 -11.44697 -11.44195 -11.42000 -11.41958
 Alpha  occ. eigenvalues --  -11.40881 -11.33923  -1.50851  -1.49649  -1.35797
 Alpha  occ. eigenvalues --   -1.29109  -1.23161  -1.16865  -1.12219  -1.07489
 Alpha  occ. eigenvalues --   -1.06037  -1.00076  -0.91448  -0.88952  -0.87204
 Alpha  occ. eigenvalues --   -0.83467  -0.81505  -0.80761  -0.79183  -0.78571
 Alpha  occ. eigenvalues --   -0.77594  -0.73876  -0.72387  -0.70925  -0.70437
 Alpha  occ. eigenvalues --   -0.69361  -0.68927  -0.67789  -0.65537  -0.61770
 Alpha  occ. eigenvalues --   -0.55846  -0.53701  -0.53019  -0.51918
 Alpha virt. eigenvalues --   -0.08860  -0.04098   0.06370   0.07846   0.09430
 Alpha virt. eigenvalues --    0.10978   0.12362   0.13645   0.14010   0.15613
 Alpha virt. eigenvalues --    0.16470   0.17007   0.17498   0.19096   0.20172

 Mulliken atomic charges:
              1
     1  C   -0.298293
     2  C   -0.287864
     3  C    0.167843
     4  C    0.155246
     5  C    0.127198
     6  C    0.758697
     7  C   -0.583080
     8  C   -0.330038
     9  C   -0.173116
    10  N   -0.598935
    11  N   -0.797570
    12  O   -0.626493
    13  H    0.276484
    14  H    0.347808
    15  H    0.294607
    16  H    0.296099
    17  H    0.233442
    18  H    0.231124
    19  H    0.186501
    20  H    0.247159
    21  H    0.243490
    22  H    0.234964
    23  H    0.222705
    24  H    0.263037
    25  H    0.408986
 Sum of Mulliken atomic charges =   1.00000

 Dipole moment (field-independent basis, Debye):
    X=              7.2495    Y=              2.3349    Z=              2.7025  Tot=              8.0815
 Quadrupole moment (field-independent basis, Debye-Ang):
   XX=            -17.8826   YY=            -55.5733   ZZ=            -70.1643
   XY=             -9.3550   XZ=             -4.4422   YZ=             -1.2690

 Normal termination of Gaussian 09 at Sat Feb 17 20:58:28 2018.
