 Gaussian 09, Revision C.01,
 Gaussian 09:  AM64L-G09RevC.01 23-Sep-2011

 ---------------------------------------------------------
 #B3LYP/6-31G* Integral=(Grid=UltraFine) freq Opt pop=none
 ---------------------------------------------------------

 99/9=1/99;
 -----------------------------
 Optimization for frag12-conf2
 -----------------------------
 Charge =  1 Multiplicity = 1

 SCF Done:  E(RB3LYP) =  -538.891842542     A.U. after   14 cycles
 SCF Done:  E(RB3LYP) =  -538.899676980     A.U. after   13 cycles
 SCF Done:  E(RB3LYP) =  -538.901013779     A.U. after   14 cycles
 SCF Done:  E(RB3LYP) =  -538.902281273     A.U. after   15 cycles
 SCF Done:  E(RB3LYP) =  -538.905623583     A.U. after   15 cycles
 SCF Done:  E(RB3LYP) =  -538.898106257     A.U. after   15 cycles
 SCF Done:  E(RB3LYP) =  -538.907429756     A.U. after   14 cycles
 SCF Done:  E(RB3LYP) =  -538.911921590     A.U. after   14 cycles
 SCF Done:  E(RB3LYP) =  -538.916135898     A.U. after   15 cycles
 SCF Done:  E(RB3LYP) =  -538.917885329     A.U. after   11 cycles
 SCF Done:  E(RB3LYP) =  -538.921487836     A.U. after    9 cycles
 SCF Done:  E(RB3LYP) =  -538.921492024     A.U. after   10 cycles
 SCF Done:  E(RB3LYP) =  -538.921497006     A.U. after   10 cycles
 SCF Done:  E(RB3LYP) =  -538.921499603     A.U. after    9 cycles
 SCF Done:  E(RB3LYP) =  -538.921500849     A.U. after    9 cycles
 SCF Done:  E(RB3LYP) =  -538.921501189     A.U. after    8 cycles
 SCF Done:  E(RB3LYP) =  -538.921501248     A.U. after    6 cycles
 SCF Done:  E(RB3LYP) =  -538.921501285     A.U. after    7 cycles
 SCF Done:  E(RB3LYP) =  -538.921501304     A.U. after    7 cycles
 Optimization completed.
    -- Stationary point found.
 Normal termination of Gaussian 09 at Fri Feb 16 19:51:33 2018.

 --------------------------------------------------------------------
 #N Geom=AllCheck Guess=TCheck SCRF=Check GenChk RB3LYP/6-31G(d) Freq
 --------------------------------------------------------------------

 Structure from the checkpoint file:  frag12-conf2.chk
 -----------------------------
 Optimization for frag12-conf2
 -----------------------------
 Charge =  1 Multiplicity = 1

                         Standard orientation:
 ---------------------------------------------------------------------
 Center     Atomic      Atomic             Coordinates (Angstroms)
 Number     Number       Type             X           Y           Z
 ---------------------------------------------------------------------
      1          6           0       -1.827048    0.335084    0.173216
      2          6           0        3.667564   -0.891680    0.368322
      3          6           0        4.034042    0.518133   -0.121850
      4          6           0        2.399693   -1.215027   -0.443011
      5          6           0        2.672347    1.240264   -0.258144
      6          6           0        1.623991    0.118217   -0.501354
      7          6           0       -4.163598    0.798899   -0.276873
      8          6           0       -3.408700   -1.557770   -0.130771
      9          6           0       -0.663016   -0.670659    0.397157
     10          7           0       -3.054931   -0.140695   -0.066715
     11          7           0        0.554925    0.185706    0.585557
     12          8           0       -1.530732    1.537025    0.234793
     13          1           0        4.461278   -1.626673    0.211197
     14          1           0        3.451430   -0.881874    1.446662
     15          1           0        4.716457    1.047217    0.548329
     16          1           0        4.523443    0.454326   -1.100277
     17          1           0        2.677935   -1.488251   -1.466900
     18          1           0        1.809059   -2.048315   -0.044879
     19          1           0        2.435030    1.786169    0.665098
     20          1           0        2.656845    1.978913   -1.063561
     21          1           0        1.065463    0.253046   -1.430448
     22          1           0       -4.603689    0.630745   -1.265170
     23          1           0       -3.786350    1.817365   -0.210180
     24          1           0       -4.931098    0.637842    0.487160
     25          1           0       -4.165973   -1.785427    0.627158
     26          1           0       -2.545347   -2.199976    0.043522
     27          1           0       -3.822420   -1.793809   -1.117150
     28          1           0       -0.817824   -1.285061    1.286485
     29          1           0       -0.507970   -1.327503   -0.460195
     30          1           0        0.989165    0.014863    1.496907
     31          1           0        0.128808    1.152359    0.595855
 ---------------------------------------------------------------------

 SCF Done:  E(RB3LYP) =  -538.921501304     A.U. after    1 cycles

 Isotropic polarizability for W=    0.000000      108.32 Bohr**3.
 End of Minotr Frequency-dependent properties file   721 does not exist.

                     1                      2                      3
                     A                      A                      A
 Frequencies --    17.4679                32.7325                52.6064
 Red. masses --     2.7217                 2.6829                 3.0310
 Frc consts  --     0.0005                 0.0017                 0.0049
 IR Inten    --     1.4151                 0.4853                 1.8814

                     4                      5                      6
                     A                      A                      A
 Frequencies --    67.4512                93.5793               104.0045
 Red. masses --     2.2542                 1.3577                 1.2730
 Frc consts  --     0.0060                 0.0070                 0.0081
 IR Inten    --     3.1305                 0.5211                 1.2022

                     7                      8                      9
                     A                      A                      A
 Frequencies --   136.1077               212.4786               230.8202
 Red. masses --     2.7049                 2.3400                 3.1718
 Frc consts  --     0.0295                 0.0622                 0.0996
 IR Inten    --     4.9981                 0.7692                 2.4716

                    10                     11                     12
                     A                      A                      A
 Frequencies --   266.1313               272.5556               286.1510
 Red. masses --     2.4151                 1.9211                 2.4464
 Frc consts  --     0.1008                 0.0841                 0.1180
 IR Inten    --     5.0030                 0.6121                 7.9267

                    13                     14                     15
                     A                      A                      A
 Frequencies --   391.4823               424.6864               450.9062
 Red. masses --     2.6197                 3.0461                 2.0625
 Frc consts  --     0.2365                 0.3237                 0.2471
 IR Inten    --     8.5274                18.6927                85.0981

                    16                     17                     18
                     A                      A                      A
 Frequencies --   529.7655               558.1591               572.2000
 Red. masses --     3.2896                 2.4392                 2.1972
 Frc consts  --     0.5439                 0.4477                 0.4239
 IR Inten    --    28.9427                 5.6916                 4.8081

                    19                     20                     21
                     A                      A                      A
 Frequencies --   620.8127               648.2165               761.5464
 Red. masses --     5.0490                 2.2762                 3.7225
 Frc consts  --     1.1465                 0.5635                 1.2720
 IR Inten    --    11.1316                 5.9347                15.6998

                    22                     23                     24
                     A                      A                      A
 Frequencies --   803.2458               821.7545               870.4088
 Red. masses --     2.6622                 1.7811                 1.9909
 Frc consts  --     1.0120                 0.7086                 0.8887
 IR Inten    --    13.8426                 1.0227                 1.7445

                    25                     26                     27
                     A                      A                      A
 Frequencies --   888.4641               915.0989               923.0364
 Red. masses --     2.3425                 2.4510                 2.1268
 Frc consts  --     1.0895                 1.2093                 1.0676
 IR Inten    --     2.9705                 1.0345                 2.2981

                    28                     29                     30
                     A                      A                      A
 Frequencies --   954.0833               962.3724               991.6671
 Red. masses --     1.7218                 2.8877                 2.2052
 Frc consts  --     0.9234                 1.5758                 1.2777
 IR Inten    --     8.8484                 4.4364                10.7262

                    31                     32                     33
                     A                      A                      A
 Frequencies --  1020.7381              1031.8303              1039.7999
 Red. masses --     1.8778                 1.7903                 2.7190
 Frc consts  --     1.1528                 1.1231                 1.7321
 IR Inten    --     4.1491                 3.8568                14.6307

                    34                     35                     36
                     A                      A                      A
 Frequencies --  1054.2497              1085.6276              1127.3112
 Red. masses --     1.8594                 1.4379                 2.1052
 Frc consts  --     1.2176                 0.9985                 1.5763
 IR Inten    --     6.9344                 9.6188                11.6848

                    37                     38                     39
                     A                      A                      A
 Frequencies --  1131.3077              1182.2237              1184.5851
 Red. masses --     1.2220                 1.3732                 1.7685
 Frc consts  --     0.9215                 1.1308                 1.4621
 IR Inten    --     0.0420                19.4158                68.4845

                    40                     41                     42
                     A                      A                      A
 Frequencies --  1193.6170              1202.3125              1242.2947
 Red. masses --     1.3174                 1.4204                 1.3347
 Frc consts  --     1.1058                 1.2098                 1.2136
 IR Inten    --     6.1277                 3.1046                 5.2209

                    43                     44                     45
                     A                      A                      A
 Frequencies --  1265.7958              1272.8728              1277.7638
 Red. masses --     1.2721                 3.4453                 1.3974
 Frc consts  --     1.2009                 3.2889                 1.3442
 IR Inten    --     1.9298                49.7876                 0.2886

                    46                     47                     48
                     A                      A                      A
 Frequencies --  1301.6350              1328.5545              1337.2821
 Red. masses --     1.1785                 1.3192                 1.2714
 Frc consts  --     1.1764                 1.3719                 1.3396
 IR Inten    --    80.7135                10.7863                21.5309

                    49                     50                     51
                     A                      A                      A
 Frequencies --  1359.7324              1366.5721              1374.0543
 Red. masses --     1.3212                 1.3140                 1.3760
 Frc consts  --     1.4393                 1.4458                 1.5307
 IR Inten    --     2.0003                 0.8280                18.2468

                    52                     53                     54
                     A                      A                      A
 Frequencies --  1384.2274              1445.0101              1451.5566
 Red. masses --     1.4127                 1.3060                 1.2582
 Frc consts  --     1.5948                 1.6067                 1.5620
 IR Inten    --     3.7414               355.5918                22.6634

                    55                     56                     57
                     A                      A                      A
 Frequencies --  1464.3610              1476.7514              1503.3213
 Red. masses --     1.1598                 1.8606                 1.2238
 Frc consts  --     1.4653                 2.3907                 1.6295
 IR Inten    --    15.4797                20.9129                12.6691

                    58                     59                     60
                     A                      A                      A
 Frequencies --  1507.0502              1512.1042              1515.0894
 Red. masses --     1.0388                 1.0876                 1.0802
 Frc consts  --     1.3901                 1.4652                 1.4609
 IR Inten    --     1.9257                 8.9727                 5.5413

                    61                     62                     63
                     A                      A                      A
 Frequencies --  1518.1874              1525.7080              1527.5343
 Red. masses --     1.0845                 1.0833                 1.0418
 Frc consts  --     1.4728                 1.4858                 1.4322
 IR Inten    --    24.0373                 8.5850                24.4819

                    64                     65                     66
                     A                      A                      A
 Frequencies --  1529.3230              1541.8486              1566.8631
 Red. masses --     1.0990                 1.1021                 1.4121
 Frc consts  --     1.5144                 1.5437                 2.0426
 IR Inten    --     9.6103                 0.6845                38.3415

                    67                     68                     69
                     A                      A                      A
 Frequencies --  1643.8573              1769.4266              2979.2250
 Red. masses --     1.1101                 5.1711                 1.0721
 Frc consts  --     1.7675                 9.5388                 5.6066
 IR Inten    --   115.8543               262.2976               446.8312

                    70                     71                     72
                     A                      A                      A
 Frequencies --  3031.9703              3047.4214              3065.1674
 Red. masses --     1.0737                 1.0729                 1.0365
 Frc consts  --     5.8152                 5.8703                 5.7374
 IR Inten    --    22.4287                16.5296                14.0600

                    73                     74                     75
                     A                      A                      A
 Frequencies --  3069.9037              3070.8055              3077.7729
 Red. masses --     1.0615                 1.0368                 1.0658
 Frc consts  --     5.8939                 5.7604                 5.9482
 IR Inten    --    18.3153                20.8729                15.4020

                    76                     77                     78
                     A                      A                      A
 Frequencies --  3109.2503              3116.5950              3121.0129
 Red. masses --     1.1014                 1.0639                 1.0891
 Frc consts  --     6.2734                 6.0885                 6.2504
 IR Inten    --    13.6803                 7.8106                 8.6641

                    79                     80                     81
                     A                      A                      A
 Frequencies --  3124.5178              3132.1115              3132.2329
 Red. masses --     1.1061                 1.0931                 1.1063
 Frc consts  --     6.3625                 6.3183                 6.3949
 IR Inten    --     9.0882                12.5391                 8.3088

                    82                     83                     84
                     A                      A                      A
 Frequencies --  3132.4386              3138.8129              3173.4459
 Red. masses --     1.0938                 1.1012                 1.1088
 Frc consts  --     6.3236                 6.3919                 6.5794
 IR Inten    --     3.7866                16.6700                 0.5395

                    85                     86                     87
                     A                      A                      A
 Frequencies --  3180.7230              3210.4579              3472.9696
 Red. masses --     1.0993                 1.1005                 1.0773
 Frc consts  --     6.5527                 6.6832                 7.6556
 IR Inten    --    15.8982                 0.2805                46.7967

 - Thermochemistry -
 -------------------
 Temperature   298.150 Kelvin.  Pressure   1.00000 Atm.
 Atom     1 has atomic number  6 and mass  12.00000

 Molecular mass:   171.14974 amu.
 Principal axes and moments of inertia in atomic units:
                           1         2         3
     Eigenvalues --   729.708134799.070845281.45285
           X            0.99997   0.00665   0.00252
           Y           -0.00663   0.99996  -0.00677
           Z           -0.00256   0.00675   0.99997
 This molecule is an asymmetric top.
 Rotational symmetry number  1.
 Warning -- assumption of classical behavior for rotation
           may cause significant error
 Rotational temperatures (Kelvin)      0.11870     0.01805     0.01640
 Rotational constants (GHZ):           2.47324     0.37606     0.34171
 Zero-point vibrational energy     750711.8 (Joules/Mol)
                                  179.42442 (Kcal/Mol)
 Warning -- explicit consideration of  18 degrees of freedom as
           vibrations may cause significant error
 Vibrational temperatures:     25.13    47.09    75.69    97.05   134.64
          (Kelvin)            149.64   195.83   305.71   332.10   382.90
                              392.15   411.71   563.25   611.03   648.75
                              762.21   803.07   823.27   893.21   932.64
                             1095.69  1155.69  1182.32  1252.32  1278.30
                             1316.62  1328.04  1372.71  1384.64  1426.79
                             1468.61  1484.57  1496.04  1516.83  1561.97
                             1621.95  1627.70  1700.95  1704.35  1717.35
                             1729.86  1787.38  1821.20  1831.38  1838.41
                             1872.76  1911.49  1924.05  1956.35  1966.19
                             1976.96  1991.59  2079.04  2088.46  2106.89
                             2124.71  2162.94  2168.31  2175.58  2179.87
                             2184.33  2195.15  2197.78  2200.35  2218.37
                             2254.36  2365.14  2545.81  4286.43  4362.32
                             4384.55  4410.09  4416.90  4418.20  4428.22
                             4473.51  4484.08  4490.44  4495.48  4506.40
                             4506.58  4506.87  4516.05  4565.88  4576.35
                             4619.13  4996.82

 Zero-point correction=                           0.285931 (Hartree/Particle)
 Thermal correction to Energy=                    0.299476
 Thermal correction to Enthalpy=                  0.300420
 Thermal correction to Gibbs Free Energy=         0.243291
 Sum of electronic and zero-point Energies=           -538.635570
 Sum of electronic and thermal Energies=              -538.622025
 Sum of electronic and thermal Enthalpies=            -538.621081
 Sum of electronic and thermal Free Energies=         -538.678210

                     E (Thermal)             CV                S
                      KCal/Mol        Cal/Mol-Kelvin    Cal/Mol-Kelvin
 Total                  187.924             48.929            120.238
 Electronic               0.000              0.000              0.000
 Translational            0.889              2.981             41.320
 Rotational               0.889              2.981             31.292
 Vibrational            186.147             42.967             47.626
 Vibration     1          0.593              1.986              6.903
 Vibration     2          0.594              1.983              5.657
 Vibration     3          0.596              1.977              4.717
 Vibration     4          0.598              1.970              4.226
 Vibration     5          0.603              1.954              3.584
 Vibration     6          0.605              1.946              3.378
 Vibration     7          0.614              1.917              2.858
 Vibration     8          0.644              1.822              2.022
 Vibration     9          0.653              1.794              1.873
 Vibration    10          0.672              1.735              1.621
 Vibration    11          0.676              1.724              1.580
 Vibration    12          0.684              1.699              1.497
 Vibration    13          0.759              1.488              0.994
 Vibration    14          0.787              1.417              0.876
 Vibration    15          0.810              1.359              0.793
 Vibration    16          0.885              1.184              0.588
 Vibration    17          0.914              1.122              0.528
 Vibration    18          0.928              1.091              0.500

 Optimization completed.
    -- Stationary point found.
 Normal termination of Gaussian 09 at Fri Feb 16 20:17:46 2018.
