 Gaussian 09, Revision C.01,
 Gaussian 09:  AM64L-G09RevC.01 23-Sep-2011

 ----------------------------------------------------------------------
 #HF/6-31G* Geom=AllCheck Guess=Read Pop=(MK,ReadRadii) Integral=(Grid=
 UltraFine) iop(6/33=2)
 ----------------------------------------------------------------------

 Structure from the checkpoint file:  frag12-conf2.chk
 -----------------------------
 Optimization for frag12-conf2
 -----------------------------
 Charge =  1 Multiplicity = 1

                         Standard orientation:
 ---------------------------------------------------------------------
 Center     Atomic      Atomic             Coordinates (Angstroms)
 Number     Number       Type             X           Y           Z
 ---------------------------------------------------------------------
      1          6           0       -1.827048    0.335084    0.173216
      2          6           0        3.667564   -0.891680    0.368322
      3          6           0        4.034042    0.518133   -0.121850
      4          6           0        2.399693   -1.215027   -0.443011
      5          6           0        2.672347    1.240264   -0.258144
      6          6           0        1.623991    0.118217   -0.501354
      7          6           0       -4.163598    0.798899   -0.276873
      8          6           0       -3.408700   -1.557770   -0.130771
      9          6           0       -0.663016   -0.670659    0.397157
     10          7           0       -3.054931   -0.140695   -0.066715
     11          7           0        0.554925    0.185706    0.585557
     12          8           0       -1.530732    1.537025    0.234793
     13          1           0        4.461278   -1.626673    0.211197
     14          1           0        3.451430   -0.881874    1.446662
     15          1           0        4.716457    1.047217    0.548329
     16          1           0        4.523443    0.454326   -1.100277
     17          1           0        2.677935   -1.488251   -1.466900
     18          1           0        1.809059   -2.048315   -0.044879
     19          1           0        2.435030    1.786169    0.665098
     20          1           0        2.656845    1.978913   -1.063561
     21          1           0        1.065463    0.253046   -1.430448
     22          1           0       -4.603689    0.630745   -1.265170
     23          1           0       -3.786350    1.817365   -0.210180
     24          1           0       -4.931098    0.637842    0.487160
     25          1           0       -4.165973   -1.785427    0.627158
     26          1           0       -2.545347   -2.199976    0.043522
     27          1           0       -3.822420   -1.793809   -1.117150
     28          1           0       -0.817824   -1.285061    1.286485
     29          1           0       -0.507970   -1.327503   -0.460195
     30          1           0        0.989165    0.014863    1.496907
     31          1           0        0.128808    1.152359    0.595855
 ---------------------------------------------------------------------

 SCF Done:  E(RHF) =  -535.439162128     A.U. after   13 cycles

 The electronic state is 1-A.
 Alpha  occ. eigenvalues --  -20.68881 -15.84037 -15.74849 -11.52158 -11.46839
 Alpha  occ. eigenvalues --  -11.44537 -11.40522 -11.37949 -11.37669 -11.37274
 Alpha  occ. eigenvalues --  -11.35672 -11.35098  -1.54658  -1.46288  -1.39735
 Alpha  occ. eigenvalues --   -1.26751  -1.17151  -1.11497  -1.10805  -1.10648
 Alpha  occ. eigenvalues --   -1.06460  -0.96001  -0.94337  -0.92334  -0.88800
 Alpha  occ. eigenvalues --   -0.84799  -0.82919  -0.82412  -0.79654  -0.78976
 Alpha  occ. eigenvalues --   -0.77263  -0.76097  -0.73841  -0.71730  -0.71358
 Alpha  occ. eigenvalues --   -0.68969  -0.68936  -0.66907  -0.66498  -0.64801
 Alpha  occ. eigenvalues --   -0.63896  -0.63026  -0.61764  -0.60861  -0.60031
 Alpha  occ. eigenvalues --   -0.58758  -0.51893
 Alpha virt. eigenvalues --    0.02024   0.04156   0.07300   0.08353   0.09726
 Alpha virt. eigenvalues --    0.11556   0.12358   0.14265   0.14986   0.15597
 Alpha virt. eigenvalues --    0.17099   0.17577   0.17997   0.18737   0.18888

 Mulliken atomic charges:
              1
     1  C    0.809855
     2  C   -0.333974
     3  C   -0.334119
     4  C   -0.358935
     5  C   -0.368588
     6  C   -0.022368
     7  C   -0.315508
     8  C   -0.308172
     9  C   -0.261952
    10  N   -0.656695
    11  N   -0.819681
    12  O   -0.660574
    13  H    0.220572
    14  H    0.161067
    15  H    0.213227
    16  H    0.199090
    17  H    0.221733
    18  H    0.188658
    19  H    0.189010
    20  H    0.230224
    21  H    0.242231
    22  H    0.202460
    23  H    0.253145
    24  H    0.203285
    25  H    0.219011
    26  H    0.183986
    27  H    0.217967
    28  H    0.264163
    29  H    0.262725
    30  H    0.445994
    31  H    0.512164
 Sum of Mulliken atomic charges =   1.00000

 Dipole moment (field-independent basis, Debye):
    X=             -0.1155    Y=             -3.3010    Z=              0.9057  Tot=              3.4250
 Quadrupole moment (field-independent basis, Debye-Ang):
   XX=            -35.0271   YY=            -70.5632   ZZ=            -67.6542
   XY=              6.7833   XZ=              1.2020   YZ=             -0.5947

 Normal termination of Gaussian 09 at Sat Feb 17 20:57:09 2018.
