 Gaussian 09, Revision C.01,
 Gaussian 09:  AM64L-G09RevC.01 23-Sep-2011

 ---------------------------------------------------------
 #B3LYP/6-31G* Integral=(Grid=UltraFine) freq Opt pop=none
 ---------------------------------------------------------

 99/9=1/99;
 ----------------------------
 Optimization for frag2-conf2
 ----------------------------
 Charge =  0 Multiplicity = 1

 SCF Done:  E(RB3LYP) =  -1366.27588489     A.U. after   15 cycles
 SCF Done:  E(RB3LYP) =  -1366.28857998     A.U. after   14 cycles
 SCF Done:  E(RB3LYP) =  -1366.29225229     A.U. after   15 cycles
 SCF Done:  E(RB3LYP) =  -1366.29247661     A.U. after   13 cycles
 SCF Done:  E(RB3LYP) =  -1366.29388553     A.U. after   13 cycles
 SCF Done:  E(RB3LYP) =  -1366.29501292     A.U. after   12 cycles
 SCF Done:  E(RB3LYP) =  -1366.29559006     A.U. after   12 cycles
 SCF Done:  E(RB3LYP) =  -1366.29576548     A.U. after   12 cycles
 SCF Done:  E(RB3LYP) =  -1366.29587951     A.U. after   11 cycles
 SCF Done:  E(RB3LYP) =  -1366.29597971     A.U. after   12 cycles
 SCF Done:  E(RB3LYP) =  -1366.29602875     A.U. after   12 cycles
 SCF Done:  E(RB3LYP) =  -1366.29572515     A.U. after   14 cycles
 SCF Done:  E(RB3LYP) =  -1366.29590784     A.U. after   12 cycles
 SCF Done:  E(RB3LYP) =  -1366.29625774     A.U. after   12 cycles
 SCF Done:  E(RB3LYP) =  -1366.29630615     A.U. after   11 cycles
 SCF Done:  E(RB3LYP) =  -1366.29632361     A.U. after   11 cycles
 SCF Done:  E(RB3LYP) =  -1366.29632931     A.U. after   10 cycles
 SCF Done:  E(RB3LYP) =  -1366.29632975     A.U. after    8 cycles
 SCF Done:  E(RB3LYP) =  -1366.29632982     A.U. after    7 cycles
 Optimization completed.
    -- Stationary point found.
 Normal termination of Gaussian 09 at Mon Feb 26 22:39:54 2018.

 --------------------------------------------------------------------
 #N Geom=AllCheck Guess=TCheck SCRF=Check GenChk RB3LYP/6-31G(d) Freq
 --------------------------------------------------------------------

 Structure from the checkpoint file:  frag2-conf2.chk
 ----------------------------
 Optimization for frag2-conf2
 ----------------------------
 Charge =  0 Multiplicity = 1

                         Standard orientation:
 ---------------------------------------------------------------------
 Center     Atomic      Atomic             Coordinates (Angstroms)
 Number     Number       Type             X           Y           Z
 ---------------------------------------------------------------------
      1          6           0       -0.805753    2.238723    0.066937
      2          6           0       -4.039067    0.123690   -0.409141
      3          6           0        2.444314   -1.697480    0.248051
      4          6           0       -0.227895    0.852503   -0.190970
      5          7           0       -2.695101   -0.199359   -0.914067
      6          7           0        0.960371    0.587827    0.577188
      7          8           0        3.470507    0.729130    0.601984
      8          8           0        2.254534    0.199356   -1.590110
      9          8           0       -1.993379   -0.214081    1.569680
     10          8           0       -0.843113   -1.762674   -0.123114
     11         16           0        2.401557    0.057164   -0.139139
     12         16           0       -1.465307   -0.474206    0.224378
     13          1           0       -1.042715    2.370497    1.127585
     14          1           0       -0.071883    2.992623   -0.234758
     15          1           0       -1.717732    2.390232   -0.516222
     16          1           0       -3.978752    0.990600    0.250121
     17          1           0       -4.508924   -0.698689    0.142590
     18          1           0       -4.659371    0.383984   -1.271426
     19          1           0        3.317454   -2.114262   -0.259441
     20          1           0        2.538117   -1.808213    1.329579
     21          1           0        1.517851   -2.149924   -0.108601
     22          1           0       -0.014248    0.695988   -1.251579
     23          1           0       -2.687066   -0.983208   -1.563336
     24          1           0        1.132386    1.165314    1.393023
 ---------------------------------------------------------------------

 SCF Done:  E(RB3LYP) =  -1366.29632982     A.U. after    1 cycles

 Isotropic polarizability for W=    0.000000      100.97 Bohr**3.
 End of Minotr Frequency-dependent properties file   721 does not exist.

                     1                      2                      3
                     A                      A                      A
 Frequencies --    34.6031                47.2922                52.2288
 Red. masses --     3.8268                 5.2232                 3.0146
 Frc consts  --     0.0027                 0.0069                 0.0048
 IR Inten    --     2.0321                 5.1452                 3.7572

                     4                      5                      6
                     A                      A                      A
 Frequencies --    88.1966               127.7956               158.1017
 Red. masses --     3.6813                 1.3232                 4.3631
 Frc consts  --     0.0169                 0.0127                 0.0643
 IR Inten    --     7.9055                 3.4066                 3.3232

                     7                      8                      9
                     A                      A                      A
 Frequencies --   178.1303               213.0563               221.1024
 Red. masses --     3.4872                 2.9392                 1.3229
 Frc consts  --     0.0652                 0.0786                 0.0381
 IR Inten    --     3.5330                 0.7965                 2.1992

                    10                     11                     12
                     A                      A                      A
 Frequencies --   237.3443               238.6699               250.8297
 Red. masses --     2.7604                 3.5485                 3.7450
 Frc consts  --     0.0916                 0.1191                 0.1388
 IR Inten    --    16.6110                 3.0246                 1.8742

                    13                     14                     15
                     A                      A                      A
 Frequencies --   258.0472               292.3444               325.6852
 Red. masses --     1.1811                 2.0052                 4.3092
 Frc consts  --     0.0463                 0.1010                 0.2693
 IR Inten    --     1.8839                16.6306                 7.8784

                    16                     17                     18
                     A                      A                      A
 Frequencies --   342.1147               379.2080               423.7834
 Red. masses --     2.4206                 3.6310                 8.2586
 Frc consts  --     0.1669                 0.3076                 0.8739
 IR Inten    --    16.3601                26.9205                 8.1318

                    19                     20                     21
                     A                      A                      A
 Frequencies --   462.0934               468.0266               491.4614
 Red. masses --     3.7589                 4.9878                 7.2259
 Frc consts  --     0.4729                 0.6437                 1.0283
 IR Inten    --    12.1406                47.2110                21.9131

                    22                     23                     24
                     A                      A                      A
 Frequencies --   523.8767               562.8159               631.7156
 Red. masses --     5.3472                 5.7365                 3.2688
 Frc consts  --     0.8646                 1.0706                 0.7686
 IR Inten    --    89.2548                25.4221               112.7160

                    25                     26                     27
                     A                      A                      A
 Frequencies --   695.3273               736.4700               833.6695
 Red. masses --     3.3429                 4.8095                 2.0558
 Frc consts  --     0.9522                 1.5370                 0.8418
 IR Inten    --    16.7029                12.4409               129.1917

                    28                     29                     30
                     A                      A                      A
 Frequencies --   838.4845               953.0259              1008.7214
 Red. masses --     3.2799                 2.1469                 1.3678
 Frc consts  --     1.3586                 1.1488                 0.8200
 IR Inten    --   196.7839                48.3285                29.4607

                    31                     32                     33
                     A                      A                      A
 Frequencies --  1019.1488              1053.0961              1071.2974
 Red. masses --     1.3557                 1.5576                 3.2833
 Frc consts  --     0.8296                 1.0177                 2.2201
 IR Inten    --    23.0042                11.0011                97.4647

                    34                     35                     36
                     A                      A                      A
 Frequencies --  1108.7227              1120.6734              1130.0777
 Red. masses --     9.0330                 2.3204                 9.3020
 Frc consts  --     6.5422                 1.7170                 6.9991
 IR Inten    --   145.4536                31.6899               155.2623

                    37                     38                     39
                     A                      A                      A
 Frequencies --  1148.8873              1158.5579              1190.4672
 Red. masses --     1.3738                 1.4519                 2.9137
 Frc consts  --     1.0684                 1.1482                 2.4329
 IR Inten    --     8.3634                 4.3185                96.7334

                    40                     41                     42
                     A                      A                      A
 Frequencies --  1285.1484              1322.9407              1326.9575
 Red. masses --     2.0881                 1.6020                 2.2828
 Frc consts  --     2.0319                 1.6519                 2.3683
 IR Inten    --    82.0530                18.9987               100.9472

                    43                     44                     45
                     A                      A                      A
 Frequencies --  1340.3631              1389.3740              1433.2158
 Red. masses --     3.4240                 1.2067                 1.2362
 Frc consts  --     3.6243                 1.3725                 1.4961
 IR Inten    --   147.9062                10.3734                15.8540

                    46                     47                     48
                     A                      A                      A
 Frequencies --  1439.5443              1450.8523              1479.6224
 Red. masses --     1.3088                 1.3565                 1.1389
 Frc consts  --     1.5980                 1.6823                 1.4690
 IR Inten    --    22.7564                85.1183                 5.0469

                    49                     50                     51
                     A                      A                      A
 Frequencies --  1483.0664              1490.1313              1517.9048
 Red. masses --     1.0773                 1.0501                 1.0475
 Frc consts  --     1.3961                 1.3738                 1.4220
 IR Inten    --     4.7963                 7.8553                 6.0051

                    52                     53                     54
                     A                      A                      A
 Frequencies --  1519.4107              1529.8816              1540.6977
 Red. masses --     1.0550                 1.0453                 1.0406
 Frc consts  --     1.4350                 1.4414                 1.4554
 IR Inten    --     7.8667                 7.3502                 7.3409

                    55                     56                     57
                     A                      A                      A
 Frequencies --  3058.5279              3068.0646              3087.1918
 Red. masses --     1.0384                 1.0350                 1.0291
 Frc consts  --     5.7234                 5.7398                 5.7786
 IR Inten    --    47.0342                 8.1359                 4.9035

                    58                     59                     60
                     A                      A                      A
 Frequencies --  3121.4054              3128.9261              3143.2100
 Red. masses --     1.0874                 1.1019                 1.1028
 Frc consts  --     6.2421                 6.3559                 6.4194
 IR Inten    --     8.6285                18.3000                 3.6676

                    61                     62                     63
                     A                      A                      A
 Frequencies --  3154.9787              3171.9269              3188.2595
 Red. masses --     1.1022                 1.1021                 1.1068
 Frc consts  --     6.4639                 6.5330                 6.6288
 IR Inten    --    10.4892                 8.9853                 0.4505

                    64                     65                     66
                     A                      A                      A
 Frequencies --  3201.9630              3534.0179              3589.4305
 Red. masses --     1.1086                 1.0753                 1.0769
 Frc consts  --     6.6968                 7.9122                 8.1746
 IR Inten    --     5.6832                29.1810                51.2800

 - Thermochemistry -
 -------------------
 Temperature   298.150 Kelvin.  Pressure   1.00000 Atm.
 Atom     1 has atomic number  6 and mass  12.00000

 Molecular mass:   216.02385 amu.
 Principal axes and moments of inertia in atomic units:
                           1         2         3
     Eigenvalues --  1183.721114293.119304628.79443
           X            0.99965  -0.02336   0.01233
           Y            0.02326   0.99969   0.00833
           Z           -0.01252  -0.00804   0.99989
 This molecule is an asymmetric top.
 Rotational symmetry number  1.
 Warning -- assumption of classical behavior for rotation
           may cause significant error
 Rotational temperatures (Kelvin)      0.07317     0.02018     0.01871
 Rotational constants (GHZ):           1.52463     0.42038     0.38989
 Zero-point vibrational energy     490900.6 (Joules/Mol)
                                  117.32805 (Kcal/Mol)
 Warning -- explicit consideration of  23 degrees of freedom as
           vibrations may cause significant error
 Vibrational temperatures:     49.79    68.04    75.15   126.90   183.87
          (Kelvin)            227.47   256.29   306.54   318.12   341.49
                              343.39   360.89   371.27   420.62   468.59
                              492.23   545.60   609.73   664.85   673.39
                              707.10   753.74   809.77   908.90  1000.42
                             1059.61  1199.46  1206.39  1371.19  1451.32
                             1466.33  1515.17  1541.36  1595.20  1612.40
                             1625.93  1652.99  1666.90  1712.81  1849.04
                             1903.41  1909.19  1928.48  1999.00  2062.08
                             2071.18  2087.45  2128.84  2133.80  2143.96
                             2183.92  2186.09  2201.16  2216.72  4400.53
                             4414.26  4441.77  4491.00  4501.82  4522.37
                             4539.31  4563.69  4587.19  4606.90  5084.66
                             5164.38

 Zero-point correction=                           0.186974 (Hartree/Particle)
 Thermal correction to Energy=                    0.201869
 Thermal correction to Enthalpy=                  0.202813
 Thermal correction to Gibbs Free Energy=         0.144443
 Sum of electronic and zero-point Energies=          -1366.109356
 Sum of electronic and thermal Energies=             -1366.094461
 Sum of electronic and thermal Enthalpies=           -1366.093517
 Sum of electronic and thermal Free Energies=        -1366.151887

                     E (Thermal)             CV                S
                      KCal/Mol        Cal/Mol-Kelvin    Cal/Mol-Kelvin
 Total                  126.675             52.785            122.851
 Electronic               0.000              0.000              0.000
 Translational            0.889              2.981             42.014
 Rotational               0.889              2.981             31.531
 Vibrational            124.897             46.824             49.306
 Vibration     1          0.594              1.983              5.546
 Vibration     2          0.595              1.979              4.928
 Vibration     3          0.596              1.977              4.731
 Vibration     4          0.601              1.957              3.700
 Vibration     5          0.611              1.925              2.979
 Vibration     6          0.621              1.894              2.572
 Vibration     7          0.629              1.869              2.348
 Vibration     8          0.644              1.821              2.017
 Vibration     9          0.648              1.809              1.950
 Vibration    10          0.656              1.784              1.823
 Vibration    11          0.657              1.781              1.813
 Vibration    12          0.663              1.761              1.725
 Vibration    13          0.667              1.749              1.675
 Vibration    14          0.688              1.688              1.460
 Vibration    15          0.710              1.624              1.281
 Vibration    16          0.721              1.591              1.202
 Vibration    17          0.749              1.514              1.042
 Vibration    18          0.786              1.419              0.879
 Vibration    19          0.820              1.334              0.760
 Vibration    20          0.825              1.321              0.743
 Vibration    21          0.847              1.269              0.680
 Vibration    22          0.879              1.197              0.601
 Vibration    23          0.919              1.112              0.518

 Normal termination of Gaussian 09 at Mon Feb 26 22:58:14 2018.
