 Gaussian 09, Revision C.01,
 Gaussian 09:  AM64L-G09RevC.01 23-Sep-2011

 ----------------------------------------------------------------------
 #HF/6-31G* Geom=AllCheck Guess=Read Pop=(MK,ReadRadii) Integral=(Grid=
 UltraFine) iop(6/33=2)
 ----------------------------------------------------------------------

 Structure from the checkpoint file:  frag2-conf2.chk
 ----------------------------
 Optimization for frag2-conf2
 ----------------------------
 Charge =  0 Multiplicity = 1

                         Standard orientation:
 ---------------------------------------------------------------------
 Center     Atomic      Atomic             Coordinates (Angstroms)
 Number     Number       Type             X           Y           Z
 ---------------------------------------------------------------------
      1          6           0       -0.805753    2.238723    0.066937
      2          6           0       -4.039067    0.123690   -0.409141
      3          6           0        2.444314   -1.697480    0.248051
      4          6           0       -0.227895    0.852503   -0.190970
      5          7           0       -2.695101   -0.199359   -0.914067
      6          7           0        0.960371    0.587827    0.577188
      7          8           0        3.470507    0.729130    0.601984
      8          8           0        2.254534    0.199356   -1.590110
      9          8           0       -1.993379   -0.214081    1.569680
     10          8           0       -0.843113   -1.762674   -0.123114
     11         16           0        2.401557    0.057164   -0.139139
     12         16           0       -1.465307   -0.474206    0.224378
     13          1           0       -1.042715    2.370497    1.127585
     14          1           0       -0.071883    2.992623   -0.234758
     15          1           0       -1.717732    2.390232   -0.516222
     16          1           0       -3.978752    0.990600    0.250121
     17          1           0       -4.508924   -0.698689    0.142590
     18          1           0       -4.659371    0.383984   -1.271426
     19          1           0        3.317454   -2.114262   -0.259441
     20          1           0        2.538117   -1.808213    1.329579
     21          1           0        1.517851   -2.149924   -0.108601
     22          1           0       -0.014248    0.695988   -1.251579
     23          1           0       -2.687066   -0.983208   -1.563336
     24          1           0        1.132386    1.165314    1.393023
 ---------------------------------------------------------------------

 SCF Done:  E(RHF) =  -1361.66435843     A.U. after   13 cycles

 The electronic state is 1-A.
 Alpha  occ. eigenvalues --  -92.22217 -92.21371 -20.57070 -20.57055 -20.56744
 Alpha  occ. eigenvalues --  -20.56508 -15.62578 -15.62212 -11.34003 -11.28641
 Alpha  occ. eigenvalues --  -11.27331 -11.25981  -9.19293  -9.18661  -6.87904
 Alpha  occ. eigenvalues --   -6.87868  -6.87741  -6.87222  -6.87216  -6.87079
 Alpha  occ. eigenvalues --   -1.46455  -1.46001  -1.34613  -1.34534  -1.26054
 Alpha  occ. eigenvalues --   -1.23957  -1.07433  -1.02883  -0.97484  -0.91953
 Alpha  occ. eigenvalues --   -0.85777  -0.82721  -0.74135  -0.72029  -0.71258
 Alpha  occ. eigenvalues --   -0.69323  -0.67800  -0.66726  -0.64400  -0.64221
 Alpha  occ. eigenvalues --   -0.61146  -0.60707  -0.59980  -0.59637  -0.58734
 Alpha  occ. eigenvalues --   -0.57263  -0.55365  -0.52547  -0.51714  -0.50351
 Alpha  occ. eigenvalues --   -0.50197  -0.48976  -0.47826  -0.47321  -0.46388
 Alpha  occ. eigenvalues --   -0.43842  -0.41852
 Alpha virt. eigenvalues --    0.18750   0.20142   0.22513   0.22947   0.23395
 Alpha virt. eigenvalues --    0.24020   0.24639   0.24737   0.25751   0.27067
 Alpha virt. eigenvalues --    0.27087   0.28034   0.29245   0.29490   0.31192

 Mulliken atomic charges:
              1
     1  C   -0.533591
     2  C   -0.300957
     3  C   -0.715595
     4  C   -0.178729
     5  N   -0.893663
     6  N   -0.911299
     7  O   -0.682340
     8  O   -0.690929
     9  O   -0.700163
    10  O   -0.713373
    11  S    1.608224
    12  S    1.649599
    13  H    0.205562
    14  H    0.211717
    15  H    0.206071
    16  H    0.204111
    17  H    0.191315
    18  H    0.190441
    19  H    0.229332
    20  H    0.226877
    21  H    0.279346
    22  H    0.281514
    23  H    0.407236
    24  H    0.429295
 Sum of Mulliken atomic charges =   0.00000

 Dipole moment (field-independent basis, Debye):
    X=             -4.2244    Y=              0.6331    Z=             -0.7680  Tot=              4.3401
 Quadrupole moment (field-independent basis, Debye-Ang):
   XX=            -87.5252   YY=            -83.2414   ZZ=            -92.9580
   XY=            -10.5704   XZ=             11.3520   YZ=              2.9820

 Normal termination of Gaussian 09 at Mon Feb 26 23:18:30 2018.
