 Gaussian 09, Revision C.01,
 Gaussian 09:  AM64L-G09RevC.01 23-Sep-2011

 ----------------------------------------------------------------------
 #HF/6-31G* Geom=AllCheck Guess=Read Pop=(MK,ReadRadii) Integral=(Grid=
 UltraFine) iop(6/33=2)
 ----------------------------------------------------------------------

 Structure from the checkpoint file:  frag43-conf2.chk
 -----------------------------
 Optimization for frag43-conf2
 -----------------------------
 Charge =  1 Multiplicity = 1

                         Standard orientation:
 ---------------------------------------------------------------------
 Center     Atomic      Atomic             Coordinates (Angstroms)
 Number     Number       Type             X           Y           Z
 ---------------------------------------------------------------------
      1          6           0        3.474055   -1.029630    0.221638
      2          6           0       -0.109862    1.570572   -0.505212
      3          6           0       -3.508604   -2.038658   -0.027852
      4          6           0       -2.848534   -1.759981    1.329213
      5          6           0       -2.455712   -2.291847   -1.115075
      6          6           0       -1.839903   -0.601863    1.241010
      7          6           0       -1.445076   -1.135641   -1.207676
      8          6           0       -0.775185   -0.876708    0.159920
      9          6           0       -1.144623    3.758183   -0.419109
     10          6           0       -0.759076    2.567869    1.705443
     11          6           0        2.822257    0.183712   -0.476634
     12          6           0        0.329644    0.218475    0.123610
     13          7           0        4.674099   -0.820373    0.787251
     14          7           0       -0.662621    2.540762    0.246882
     15          7           0        1.431207   -0.236705   -0.814889
     16          8           0        2.877158   -2.101785    0.210627
     17          8           0        0.063287    1.669992   -1.729999
     18          1           0       -4.182817   -2.898639    0.051159
     19          1           0       -4.130795   -1.178985   -0.315265
     20          1           0       -3.605934   -1.523021    2.084799
     21          1           0       -2.329746   -2.663359    1.679494
     22          1           0       -1.919177   -3.225904   -0.895769
     23          1           0       -2.935645   -2.429968   -2.090222
     24          1           0       -2.378167    0.324105    0.997444
     25          1           0       -1.360747   -0.453581    2.217615
     26          1           0       -0.699466   -1.370408   -1.979726
     27          1           0       -1.956512   -0.224703   -1.543844
     28          1           0       -0.245847   -1.794882    0.462077
     29          1           0       -2.172608    3.959560   -0.101966
     30          1           0       -1.109355    3.616174   -1.497004
     31          1           0       -0.515429    4.610983   -0.140542
     32          1           0       -0.235268    3.452122    2.085745
     33          1           0       -0.321422    1.681605    2.159608
     34          1           0       -1.807823    2.629125    2.014035
     35          1           0        3.353077    0.422917   -1.402811
     36          1           0        2.800823    1.077838    0.150297
     37          1           0        0.779100    0.318420    1.113304
     38          1           0        5.156986    0.066561    0.748693
     39          1           0        5.158039   -1.608346    1.200586
     40          1           0        1.130169    0.168051   -1.727189
     41          1           0        1.469922   -1.274017   -0.825903
 ---------------------------------------------------------------------

 SCF Done:  E(RHF) =  -781.293485872     A.U. after   13 cycles

 The electronic state is 1-A.
 Alpha  occ. eigenvalues --  -20.69326 -20.67546 -15.83234 -15.74380 -15.74145
 Alpha  occ. eigenvalues --  -11.52622 -11.50894 -11.46489 -11.45756 -11.39798
 Alpha  occ. eigenvalues --  -11.38090 -11.37437 -11.34699 -11.34412 -11.32475
 Alpha  occ. eigenvalues --  -11.32345 -11.31611  -1.54951  -1.53284  -1.45585
 Alpha  occ. eigenvalues --   -1.38591  -1.36962  -1.25171  -1.18747  -1.13769
 Alpha  occ. eigenvalues --   -1.11785  -1.10192  -1.09947  -1.04920  -0.97380
 Alpha  occ. eigenvalues --   -0.96080  -0.94666  -0.92936  -0.89433  -0.87802
 Alpha  occ. eigenvalues --   -0.86532  -0.84119  -0.82695  -0.81706  -0.79560
 Alpha  occ. eigenvalues --   -0.78568  -0.78164  -0.75616  -0.74297  -0.73723
 Alpha  occ. eigenvalues --   -0.73310  -0.71205  -0.71033  -0.70209  -0.69397
 Alpha  occ. eigenvalues --   -0.68444  -0.67804  -0.66549  -0.65873  -0.64162
 Alpha  occ. eigenvalues --   -0.63654  -0.62564  -0.61231  -0.59632  -0.59332
 Alpha  occ. eigenvalues --   -0.57073  -0.56465  -0.56014  -0.54776  -0.54282
 Alpha  occ. eigenvalues --   -0.50992
 Alpha virt. eigenvalues --    0.01961   0.03888   0.06357   0.07486   0.08998
 Alpha virt. eigenvalues --    0.10318   0.11266   0.12979   0.13488   0.14854
 Alpha virt. eigenvalues --    0.15459   0.16087   0.17180   0.17813   0.18363

 Mulliken atomic charges:
              1
     1  C    0.776513
     2  C    0.835669
     3  C   -0.320908
     4  C   -0.320999
     5  C   -0.321847
     6  C   -0.330933
     7  C   -0.333864
     8  C   -0.199386
     9  C   -0.315112
    10  C   -0.303040
    11  C   -0.253941
    12  C   -0.106659
    13  N   -0.911505
    14  N   -0.669488
    15  N   -0.830677
    16  O   -0.613908
    17  O   -0.670103
    18  H    0.195093
    19  H    0.166459
    20  H    0.192801
    21  H    0.173091
    22  H    0.169834
    23  H    0.196251
    24  H    0.175150
    25  H    0.172830
    26  H    0.159646
    27  H    0.194344
    28  H    0.208287
    29  H    0.199937
    30  H    0.252570
    31  H    0.195797
    32  H    0.209875
    33  H    0.182497
    34  H    0.213652
    35  H    0.278490
    36  H    0.248971
    37  H    0.239392
    38  H    0.421337
    39  H    0.440539
    40  H    0.505983
    41  H    0.497360
 Sum of Mulliken atomic charges =   1.00000

 Dipole moment (field-independent basis, Debye):
    X=              6.5808    Y=              3.2527    Z=              2.2472  Tot=              7.6770
 Quadrupole moment (field-independent basis, Debye-Ang):
   XX=            -50.6927   YY=            -90.6919   ZZ=            -99.0705
   XY=              1.6785   XZ=              0.8488   YZ=              7.2136

 Normal termination of Gaussian 09 at Sat Feb 17 21:06:36 2018.
