 Gaussian 09, Revision C.01,
 Gaussian 09:  AM64L-G09RevC.01 23-Sep-2011

 ---------------------------------------------------------
 #B3LYP/6-31G* Integral=(Grid=UltraFine) freq Opt pop=none
 ---------------------------------------------------------

 99/9=1/99;
 -----------------------------
 Optimization for frag43-conf2
 -----------------------------
 Charge =  1 Multiplicity = 1

 SCF Done:  E(RB3LYP) =  -786.240857749     A.U. after   15 cycles
 SCF Done:  E(RB3LYP) =  -786.251348662     A.U. after   13 cycles
 SCF Done:  E(RB3LYP) =  -786.253205872     A.U. after   14 cycles
 SCF Done:  E(RB3LYP) =  -786.251285291     A.U. after   14 cycles
 SCF Done:  E(RB3LYP) =  -786.253892081     A.U. after   13 cycles
 SCF Done:  E(RB3LYP) =  -786.254365765     A.U. after   13 cycles
 SCF Done:  E(RB3LYP) =  -786.254488264     A.U. after   13 cycles
 SCF Done:  E(RB3LYP) =  -786.254979229     A.U. after   12 cycles
 SCF Done:  E(RB3LYP) =  -786.255118840     A.U. after   11 cycles
 SCF Done:  E(RB3LYP) =  -786.255189653     A.U. after   12 cycles
 SCF Done:  E(RB3LYP) =  -786.255252124     A.U. after    9 cycles
 SCF Done:  E(RB3LYP) =  -786.255253352     A.U. after    9 cycles
 SCF Done:  E(RB3LYP) =  -786.255253758     A.U. after    8 cycles
 SCF Done:  E(RB3LYP) =  -786.255253983     A.U. after    8 cycles
 SCF Done:  E(RB3LYP) =  -786.255254212     A.U. after    7 cycles
 SCF Done:  E(RB3LYP) =  -786.255254494     A.U. after    7 cycles
 SCF Done:  E(RB3LYP) =  -786.255254755     A.U. after    8 cycles
 SCF Done:  E(RB3LYP) =  -786.255254861     A.U. after    7 cycles
 SCF Done:  E(RB3LYP) =  -786.255254882     A.U. after    7 cycles
 Optimization completed.
    -- Stationary point found.
 Normal termination of Gaussian 09 at Fri Feb 16 22:32:12 2018.

 --------------------------------------------------------------------
 #N Geom=AllCheck Guess=TCheck SCRF=Check GenChk RB3LYP/6-31G(d) Freq
 --------------------------------------------------------------------

 Structure from the checkpoint file:  frag43-conf2.chk
 -----------------------------
 Optimization for frag43-conf2
 -----------------------------
 Charge =  1 Multiplicity = 1

                         Standard orientation:
 ---------------------------------------------------------------------
 Center     Atomic      Atomic             Coordinates (Angstroms)
 Number     Number       Type             X           Y           Z
 ---------------------------------------------------------------------
      1          6           0        3.474055   -1.029630    0.221638
      2          6           0       -0.109862    1.570572   -0.505212
      3          6           0       -3.508604   -2.038658   -0.027852
      4          6           0       -2.848534   -1.759981    1.329213
      5          6           0       -2.455712   -2.291847   -1.115075
      6          6           0       -1.839903   -0.601863    1.241010
      7          6           0       -1.445076   -1.135641   -1.207676
      8          6           0       -0.775185   -0.876708    0.159920
      9          6           0       -1.144623    3.758183   -0.419109
     10          6           0       -0.759076    2.567869    1.705443
     11          6           0        2.822257    0.183712   -0.476634
     12          6           0        0.329644    0.218475    0.123610
     13          7           0        4.674099   -0.820373    0.787251
     14          7           0       -0.662621    2.540762    0.246882
     15          7           0        1.431207   -0.236705   -0.814889
     16          8           0        2.877158   -2.101785    0.210627
     17          8           0        0.063287    1.669992   -1.729999
     18          1           0       -4.182817   -2.898639    0.051159
     19          1           0       -4.130795   -1.178985   -0.315265
     20          1           0       -3.605934   -1.523021    2.084799
     21          1           0       -2.329746   -2.663359    1.679494
     22          1           0       -1.919177   -3.225904   -0.895769
     23          1           0       -2.935645   -2.429968   -2.090222
     24          1           0       -2.378167    0.324105    0.997444
     25          1           0       -1.360747   -0.453581    2.217615
     26          1           0       -0.699466   -1.370408   -1.979726
     27          1           0       -1.956512   -0.224703   -1.543844
     28          1           0       -0.245847   -1.794882    0.462077
     29          1           0       -2.172608    3.959560   -0.101966
     30          1           0       -1.109355    3.616174   -1.497004
     31          1           0       -0.515429    4.610983   -0.140542
     32          1           0       -0.235268    3.452122    2.085745
     33          1           0       -0.321422    1.681605    2.159608
     34          1           0       -1.807823    2.629125    2.014035
     35          1           0        3.353077    0.422917   -1.402811
     36          1           0        2.800823    1.077838    0.150297
     37          1           0        0.779100    0.318420    1.113304
     38          1           0        5.156986    0.066561    0.748693
     39          1           0        5.158039   -1.608346    1.200586
     40          1           0        1.130169    0.168051   -1.727189
     41          1           0        1.469922   -1.274017   -0.825903
 ---------------------------------------------------------------------

 SCF Done:  E(RB3LYP) =  -786.255254882     A.U. after    1 cycles

 Isotropic polarizability for W=    0.000000      147.07 Bohr**3.
 End of Minotr Frequency-dependent properties file   721 does not exist.

                     1                      2                      3
                     A                      A                      A
 Frequencies --    22.9065                28.7858                48.7516
 Red. masses --     4.1846                 4.4622                 3.1736
 Frc consts  --     0.0013                 0.0022                 0.0044
 IR Inten    --     2.4202                 0.4031                 0.6433

                     4                      5                      6
                     A                      A                      A
 Frequencies --    64.6148                66.9982                93.0024
 Red. masses --     2.8793                 5.9207                 1.4073
 Frc consts  --     0.0071                 0.0157                 0.0072
 IR Inten    --     0.1262                10.1346                 1.6177

                     7                      8                      9
                     A                      A                      A
 Frequencies --   104.3863               125.2979               135.1387
 Red. masses --     2.2594                 2.1815                 1.5641
 Frc consts  --     0.0145                 0.0202                 0.0168
 IR Inten    --     6.1342                 1.4235                 3.2340

                    10                     11                     12
                     A                      A                      A
 Frequencies --   148.7666               186.9243               223.8250
 Red. masses --     2.8081                 3.2958                 3.4061
 Frc consts  --     0.0366                 0.0678                 0.1005
 IR Inten    --     2.0429                 1.1262                 2.7310

                    13                     14                     15
                     A                      A                      A
 Frequencies --   236.4037               244.2043               273.4703
 Red. masses --     2.9331                 2.4547                 3.2920
 Frc consts  --     0.0966                 0.0862                 0.1451
 IR Inten    --     0.9020                 0.9256                 3.8543

                    16                     17                     18
                     A                      A                      A
 Frequencies --   277.8927               327.0557               351.4601
 Red. masses --     2.5418                 2.0410                 2.1943
 Frc consts  --     0.1156                 0.1286                 0.1597
 IR Inten    --     6.8223                14.3626                12.5858

                    19                     20                     21
                     A                      A                      A
 Frequencies --   364.6924               402.0126               408.2057
 Red. masses --     1.2683                 3.1050                 2.6438
 Frc consts  --     0.0994                 0.2957                 0.2596
 IR Inten    --   185.8921                25.6829                15.4104

                    22                     23                     24
                     A                      A                      A
 Frequencies --   445.0506               451.8084               457.3536
 Red. masses --     2.8013                 2.8808                 2.6267
 Frc consts  --     0.3269                 0.3465                 0.3237
 IR Inten    --    14.2203                45.8565                12.7453

                    25                     26                     27
                     A                      A                      A
 Frequencies --   486.0457               497.2345               526.6937
 Red. masses --     1.8878                 1.7898                 2.4759
 Frc consts  --     0.2628                 0.2607                 0.4047
 IR Inten    --     5.0402                18.0240                97.9723

                    28                     29                     30
                     A                      A                      A
 Frequencies --   577.3686               624.7918               643.0544
 Red. masses --     2.7555                 5.1038                 2.6863
 Frc consts  --     0.5412                 1.1739                 0.6545
 IR Inten    --    11.0179                 4.6276                14.8146

                    31                     32                     33
                     A                      A                      A
 Frequencies --   663.6138               734.7054               787.0359
 Red. masses --     1.7934                 4.1102                 3.9233
 Frc consts  --     0.4653                 1.3072                 1.4318
 IR Inten    --     7.0665                21.5763                 8.4855

                    34                     35                     36
                     A                      A                      A
 Frequencies --   797.6959               804.5213               825.0967
 Red. masses --     2.5131                 1.5102                 2.7066
 Frc consts  --     0.9422                 0.5759                 1.0856
 IR Inten    --    15.2881                 0.6628                 2.7784

                    37                     38                     39
                     A                      A                      A
 Frequencies --   855.6491               901.3247               905.9318
 Red. masses --     2.5755                 2.5045                 1.7221
 Frc consts  --     1.1110                 1.1987                 0.8327
 IR Inten    --     1.4274                 4.2156                 5.8125

                    40                     41                     42
                     A                      A                      A
 Frequencies --   928.3649               948.1661               968.3198
 Red. masses --     1.6097                 2.2776                 2.6645
 Frc consts  --     0.8174                 1.2064                 1.4720
 IR Inten    --     2.9732                 6.9863                11.3258

                    43                     44                     45
                     A                      A                      A
 Frequencies --   971.1749              1020.4125              1035.9674
 Red. masses --     2.7000                 1.8873                 2.3632
 Frc consts  --     1.5004                 1.1578                 1.4943
 IR Inten    --    14.3341                20.2890                 3.6478

                    46                     47                     48
                     A                      A                      A
 Frequencies --  1048.1515              1061.2495              1071.4369
 Red. masses --     2.0201                 3.6230                 1.9077
 Frc consts  --     1.3076                 2.4041                 1.2903
 IR Inten    --     1.7424                14.4138                 9.7306

                    49                     50                     51
                     A                      A                      A
 Frequencies --  1082.2576              1090.6857              1104.9365
 Red. masses --     1.4494                 1.6433                 2.1389
 Frc consts  --     1.0003                 1.1518                 1.5386
 IR Inten    --     8.8922                 4.6912                 2.9464

                    52                     53                     54
                     A                      A                      A
 Frequencies --  1114.3577              1123.9173              1132.6897
 Red. masses --     1.3432                 1.9286                 1.2275
 Frc consts  --     0.9827                 1.4354                 0.9279
 IR Inten    --     6.4646                 4.5699                 0.1324

                    55                     56                     57
                     A                      A                      A
 Frequencies --  1168.0112              1177.0359              1184.0544
 Red. masses --     1.9970                 1.8068                 1.4449
 Frc consts  --     1.6052                 1.4748                 1.1935
 IR Inten    --     5.1064                58.9822                10.0534

                    58                     59                     60
                     A                      A                      A
 Frequencies --  1214.9136              1251.7788              1265.9065
 Red. masses --     1.3819                 1.3477                 1.2662
 Frc consts  --     1.2018                 1.2442                 1.1955
 IR Inten    --     3.6986                 2.5906                 1.1723

                    61                     62                     63
                     A                      A                      A
 Frequencies --  1269.6861              1299.1623              1306.1960
 Red. masses --     3.6482                 1.2696                 1.2754
 Frc consts  --     3.4651                 1.2625                 1.2821
 IR Inten    --    52.7598                13.5144                 1.9980

                    64                     65                     66
                     A                      A                      A
 Frequencies --  1311.6219              1318.0811              1352.3865
 Red. masses --     1.2807                 1.2803                 1.2607
 Frc consts  --     1.2981                 1.3105                 1.3585
 IR Inten    --    11.0887                 6.8532                15.2644

                    67                     68                     69
                     A                      A                      A
 Frequencies --  1364.8823              1368.2750              1388.0772
 Red. masses --     1.3026                 1.3679                 1.3700
 Frc consts  --     1.4297                 1.5088                 1.5553
 IR Inten    --    10.6509                50.3215                 0.2026

                    70                     71                     72
                     A                      A                      A
 Frequencies --  1397.5673              1405.2311              1406.5369
 Red. masses --     1.3895                 1.4352                 1.4635
 Frc consts  --     1.5990                 1.6698                 1.7059
 IR Inten    --    13.1114                 2.3558                 4.6173

                    73                     74                     75
                     A                      A                      A
 Frequencies --  1418.5194              1428.5233              1455.8928
 Red. masses --     1.4861                 1.8757                 1.5985
 Frc consts  --     1.7619                 2.2552                 1.9963
 IR Inten    --    27.6130                45.6850               231.9623

                    76                     77                     78
                     A                      A                      A
 Frequencies --  1462.1716              1476.4457              1493.0391
 Red. masses --     1.1571                 1.5758                 1.3638
 Frc consts  --     1.4575                 2.0239                 1.7912
 IR Inten    --    14.3240               116.9139                39.7129

                    79                     80                     81
                     A                      A                      A
 Frequencies --  1501.6383              1504.9406              1509.2542
 Red. masses --     1.1637                 1.0871                 1.0885
 Frc consts  --     1.5461                 1.4506                 1.4608
 IR Inten    --    15.7590                 8.1499                 7.4393

                    82                     83                     84
                     A                      A                      A
 Frequencies --  1512.6351              1516.3511              1517.9833
 Red. masses --     1.1023                 1.0922                 1.0929
 Frc consts  --     1.4860                 1.4796                 1.4838
 IR Inten    --     6.8635                 3.7349                 1.3536

                    85                     86                     87
                     A                      A                      A
 Frequencies --  1522.8105              1525.0313              1531.2099
 Red. masses --     1.0831                 1.0783                 1.0619
 Frc consts  --     1.4799                 1.4775                 1.4669
 IR Inten    --    15.3166                 8.3576                14.1124

                    88                     89                     90
                     A                      A                      A
 Frequencies --  1536.2194              1557.6248              1572.5106
 Red. masses --     1.0953                 1.2074                 1.2521
 Frc consts  --     1.5229                 1.7259                 1.8242
 IR Inten    --     4.3888                54.4495               132.7177

                    91                     92                     93
                     A                      A                      A
 Frequencies --  1657.5732              1734.7597              1809.6395
 Red. masses --     1.2668                 5.8089                 6.9762
 Frc consts  --     2.0507                10.2996                13.4603
 IR Inten    --   105.0801               236.6613               271.8892

                    94                     95                     96
                     A                      A                      A
 Frequencies --  3002.7767              3030.8431              3033.5700
 Red. masses --     1.0833                 1.0704                 1.0593
 Frc consts  --     5.7549                 5.7931                 5.7435
 IR Inten    --     6.3367                22.3253                28.5671

                    97                     98                     99
                     A                      A                      A
 Frequencies --  3035.8023              3037.8846              3043.2032
 Red. masses --     1.0685                 1.0647                 1.0644
 Frc consts  --     5.8021                 5.7890                 5.8081
 IR Inten    --     6.9975                24.3782                29.6664

                   100                    101                    102
                     A                      A                      A
 Frequencies --  3063.2483              3067.8540              3076.9966
 Red. masses --     1.0385                 1.0390                 1.1015
 Frc consts  --     5.7416                 5.7612                 6.1447
 IR Inten    --    10.7839                36.6365                29.3906

                   103                    104                    105
                     A                      A                      A
 Frequencies --  3081.3434              3095.4072              3096.8484
 Red. masses --     1.0987                 1.0968                 1.0942
 Frc consts  --     6.1462                 6.1915                 6.1830
 IR Inten    --    25.8216                25.3541                27.9549

                   106                    107                    108
                     A                      A                      A
 Frequencies --  3100.1331              3102.8604              3120.5651
 Red. masses --     1.1027                 1.0608                 1.1049
 Frc consts  --     6.2439                 6.0174                 6.3395
 IR Inten    --    42.6528                 2.0618                15.3809

                   109                    110                    111
                     A                      A                      A
 Frequencies --  3126.7175              3127.6822              3157.8868
 Red. masses --     1.0868                 1.1050                 1.1061
 Frc consts  --     6.2598                 6.3685                 6.4992
 IR Inten    --    11.7930                 8.5800                 2.3463

                   112                    113                    114
                     A                      A                      A
 Frequencies --  3180.1807              3202.8403              3212.4946
 Red. masses --     1.0657                 1.0966                 1.0998
 Frc consts  --     6.3501                 6.6280                 6.6871
 IR Inten    --   137.7865                14.0436                 0.6664

                   115                    116                    117
                     A                      A                      A
 Frequencies --  3261.4852              3579.2940              3697.2200
 Red. masses --     1.0852                 1.0466                 1.1057
 Frc consts  --     6.8010                 7.9001                 8.9054
 IR Inten    --   282.8644               114.2183                72.4650

 - Thermochemistry -
 -------------------
 Temperature   298.150 Kelvin.  Pressure   1.00000 Atm.
 Atom     1 has atomic number  6 and mass  12.00000

 Molecular mass:   242.18685 amu.
 Principal axes and moments of inertia in atomic units:
                           1         2         3
     Eigenvalues --  3707.971455446.480577493.06129
           X            0.99935   0.03592  -0.00270
           Y           -0.03587   0.99919   0.01820
           Z            0.00336  -0.01809   0.99983
 This molecule is an asymmetric top.
 Rotational symmetry number  1.
 Warning -- assumption of classical behavior for rotation
           may cause significant error
 Rotational temperatures (Kelvin)      0.02336     0.01590     0.01156
 Rotational constants (GHZ):           0.48672     0.33136     0.24085
 Zero-point vibrational energy     975262.6 (Joules/Mol)
                                  233.09335 (Kcal/Mol)
 Warning -- explicit consideration of  28 degrees of freedom as
           vibrations may cause significant error
 Vibrational temperatures:     32.96    41.42    70.14    92.97    96.40
          (Kelvin)            133.81   150.19   180.28   194.43   214.04
                              268.94   322.03   340.13   351.36   393.46
                              399.83   470.56   505.67   524.71   578.41
                              587.32   640.33   650.05   658.03   699.31
                              715.41   757.79   830.70   898.93   925.21
                              954.79  1057.08  1132.37  1147.71  1157.53
                             1187.13  1231.09  1296.80  1303.43  1335.71
                             1364.20  1393.19  1397.30  1468.14  1490.52
                             1508.05  1526.90  1541.56  1557.13  1569.25
                             1589.76  1603.31  1617.06  1629.69  1680.51
                             1693.49  1703.59  1747.99  1801.03  1821.35
                             1826.79  1869.20  1879.32  1887.13  1896.42
                             1945.78  1963.76  1968.64  1997.13  2010.79
                             2021.81  2023.69  2040.93  2055.32  2094.70
                             2103.74  2124.27  2148.15  2160.52  2165.27
                             2171.48  2176.34  2181.69  2184.04  2190.98
                             2194.18  2203.07  2210.27  2241.07  2262.49
                             2384.88  2495.93  2603.66  4320.32  4360.70
                             4364.63  4367.84  4370.83  4378.49  4407.33
                             4413.95  4427.11  4433.36  4453.59  4455.67
                             4460.39  4464.32  4489.79  4498.64  4500.03
                             4543.49  4575.56  4608.17  4622.06  4692.54
                             5149.80  5319.47

 Zero-point correction=                           0.371458 (Hartree/Particle)
 Thermal correction to Energy=                    0.390091
 Thermal correction to Enthalpy=                  0.391035
 Thermal correction to Gibbs Free Energy=         0.323217
 Sum of electronic and zero-point Energies=           -785.883797
 Sum of electronic and thermal Energies=              -785.865164
 Sum of electronic and thermal Enthalpies=            -785.864220
 Sum of electronic and thermal Free Energies=         -785.932038

                     E (Thermal)             CV                S
                      KCal/Mol        Cal/Mol-Kelvin    Cal/Mol-Kelvin
 Total                  244.786             69.595            142.736
 Electronic               0.000              0.000              0.000
 Translational            0.889              2.981             42.355
 Rotational               0.889              2.981             33.381
 Vibrational            243.008             63.634             67.000
 Vibration     1          0.593              1.985              6.365
 Vibration     2          0.593              1.984              5.911
 Vibration     3          0.595              1.978              4.867
 Vibration     4          0.597              1.971              4.311
 Vibration     5          0.598              1.970              4.240
 Vibration     6          0.602              1.954              3.596
 Vibration     7          0.605              1.946              3.371
 Vibration     8          0.610              1.928              3.017
 Vibration     9          0.613              1.918              2.872
 Vibration    10          0.618              1.904              2.688
 Vibration    11          0.632              1.858              2.258
 Vibration    12          0.649              1.805              1.928
 Vibration    13          0.655              1.785              1.830
 Vibration    14          0.660              1.772              1.772
 Vibration    15          0.676              1.722              1.574
 Vibration    16          0.679              1.714              1.547
 Vibration    17          0.711              1.621              1.275
 Vibration    18          0.728              1.572              1.160
 Vibration    19          0.738              1.545              1.102
 Vibration    20          0.768              1.466              0.955
 Vibration    21          0.773              1.452              0.933
 Vibration    22          0.804              1.372              0.811
 Vibration    23          0.810              1.357              0.790
 Vibration    24          0.815              1.345              0.774
 Vibration    25          0.842              1.281              0.694
 Vibration    26          0.853              1.256              0.665
 Vibration    27          0.882              1.191              0.595
 Vibration    28          0.934              1.080              0.490

 Normal termination of Gaussian 09 at Sat Feb 17 00:19:38 2018.
