 Gaussian 09, Revision C.01,
 Gaussian 09:  AM64L-G09RevC.01 23-Sep-2011

 ---------------------------------------------------------
 #B3LYP/6-31G* Integral=(Grid=UltraFine) freq Opt pop=none
 ---------------------------------------------------------

 99/9=1/99;
 -----------------------------
 Optimization for frag21-conf0
 -----------------------------
 Charge =  1 Multiplicity = 1

 SCF Done:  E(RB3LYP) =  -994.889576856     A.U. after   16 cycles
 SCF Done:  E(RB3LYP) =  -994.892878617     A.U. after   13 cycles
 SCF Done:  E(RB3LYP) =  -994.892458542     A.U. after   13 cycles
 SCF Done:  E(RB3LYP) =  -994.894352303     A.U. after   13 cycles
 SCF Done:  E(RB3LYP) =  -994.894940249     A.U. after   12 cycles
 SCF Done:  E(RB3LYP) =  -994.895115061     A.U. after   12 cycles
 SCF Done:  E(RB3LYP) =  -994.895402972     A.U. after   12 cycles
 SCF Done:  E(RB3LYP) =  -994.895722689     A.U. after   12 cycles
 SCF Done:  E(RB3LYP) =  -994.896506936     A.U. after   13 cycles
 SCF Done:  E(RB3LYP) =  -994.896981053     A.U. after   13 cycles
 SCF Done:  E(RB3LYP) =  -994.900456182     A.U. after   10 cycles
 SCF Done:  E(RB3LYP) =  -994.900457869     A.U. after    8 cycles
 SCF Done:  E(RB3LYP) =  -994.900458705     A.U. after    8 cycles
 SCF Done:  E(RB3LYP) =  -994.900459323     A.U. after    8 cycles
 SCF Done:  E(RB3LYP) =  -994.900459659     A.U. after    7 cycles
 SCF Done:  E(RB3LYP) =  -994.900459948     A.U. after    7 cycles
 SCF Done:  E(RB3LYP) =  -994.900460375     A.U. after    9 cycles
 SCF Done:  E(RB3LYP) =  -994.900461075     A.U. after    9 cycles
 SCF Done:  E(RB3LYP) =  -994.900461205     A.U. after    7 cycles
 Optimization completed.
    -- Stationary point found.
 Normal termination of Gaussian 09 at Fri Feb 16 20:13:32 2018.

 --------------------------------------------------------------------
 #N Geom=AllCheck Guess=TCheck SCRF=Check GenChk RB3LYP/6-31G(d) Freq
 --------------------------------------------------------------------

 Structure from the checkpoint file:  frag21-conf0.chk
 -----------------------------
 Optimization for frag21-conf0
 -----------------------------
 Charge =  1 Multiplicity = 1

                         Standard orientation:
 ---------------------------------------------------------------------
 Center     Atomic      Atomic             Coordinates (Angstroms)
 Number     Number       Type             X           Y           Z
 ---------------------------------------------------------------------
      1          6           0       -2.359735    0.872161    0.647412
      2          6           0       -0.901887   -0.557030   -0.631885
      3          6           0       -1.390610    1.846941    0.567935
      4          6           0       -2.110248   -0.361796    0.034753
      5          6           0        0.050279    0.454464   -0.688008
      6          6           0        2.623912   -0.744963    0.383243
      7          6           0        3.542347   -1.838831    0.873846
      8          6           0        0.795337    2.738752   -0.052152
      9          6           0        1.347614    0.213134   -1.450464
     10          7           0       -0.214687    1.649309   -0.084268
     11          7           0        2.095720   -0.893264   -0.878984
     12          8           0        2.330648    0.243966    1.049353
     13         17           0       -3.283587   -1.618266    0.097497
     14          1           0       -3.284644    1.068292    1.176286
     15          1           0       -0.683452   -1.505501   -1.108357
     16          1           0       -1.522361    2.817396    1.029196
     17          1           0        4.565703   -1.449828    0.913505
     18          1           0        3.257084   -2.108675    1.893850
     19          1           0        3.528624   -2.732389    0.244055
     20          1           0        1.703188    2.336333    0.400203
     21          1           0        0.981222    3.106691   -1.062732
     22          1           0        0.402227    3.551897    0.555821
     23          1           0        1.088129   -0.050154   -2.480415
     24          1           0        1.958023    1.117205   -1.485391
     25          1           0        2.432756   -1.621765   -1.493602
 ---------------------------------------------------------------------

 SCF Done:  E(RB3LYP) =  -994.900461205     A.U. after    1 cycles

 Isotropic polarizability for W=    0.000000      117.82 Bohr**3.
 End of Minotr Frequency-dependent properties file   721 does not exist.

                     1                      2                      3
                     A                      A                      A
 Frequencies --    39.3675                54.6386                77.0919
 Red. masses --     3.5647                 1.2751                 3.9194
 Frc consts  --     0.0033                 0.0022                 0.0137
 IR Inten    --     2.0735                 3.8118                 3.0537

                     4                      5                      6
                     A                      A                      A
 Frequencies --    81.2375               132.5273               164.5847
 Red. masses --     4.2129                 3.8999                 4.3538
 Frc consts  --     0.0164                 0.0404                 0.0695
 IR Inten    --    13.5333                 2.3574                 1.7411

                     7                      8                      9
                     A                      A                      A
 Frequencies --   187.3581               237.2087               254.7344
 Red. masses --     7.0578                 1.1874                 2.8968
 Frc consts  --     0.1460                 0.0394                 0.1107
 IR Inten    --     9.2267                 2.1828                 6.0964

                    10                     11                     12
                     A                      A                      A
 Frequencies --   292.8240               318.9746               362.1601
 Red. masses --     4.3494                 4.1004                 2.3897
 Frc consts  --     0.2197                 0.2458                 0.1847
 IR Inten    --     4.8997                 3.5540                 6.0017

                    13                     14                     15
                     A                      A                      A
 Frequencies --   388.6373               428.6528               431.2473
 Red. masses --     8.6189                 1.2740                 2.7001
 Frc consts  --     0.7670                 0.1379                 0.2959
 IR Inten    --     7.2644                69.0583                13.9637

                    16                     17                     18
                     A                      A                      A
 Frequencies --   456.2343               494.8440               547.2750
 Red. masses --     2.9091                 3.2823                 4.5605
 Frc consts  --     0.3568                 0.4735                 0.8048
 IR Inten    --     8.4667                24.3891                 5.1316

                    19                     20                     21
                     A                      A                      A
 Frequencies --   597.2746               638.8637               670.8426
 Red. masses --     4.5545                 2.6627                 4.5580
 Frc consts  --     0.9573                 0.6403                 1.2086
 IR Inten    --     0.6720                 2.0870                11.9620

                    22                     23                     24
                     A                      A                      A
 Frequencies --   689.8069               726.3868               795.5770
 Red. masses --     5.5926                 4.2366                 4.5285
 Frc consts  --     1.5679                 1.3171                 1.6887
 IR Inten    --     0.5061                 3.1189                11.3036

                    25                     26                     27
                     A                      A                      A
 Frequencies --   844.1957               866.2468               909.5269
 Red. masses --     1.3244                 2.9633                 1.6152
 Frc consts  --     0.5561                 1.3101                 0.7873
 IR Inten    --    28.2308                 9.9452                16.5572

                    28                     29                     30
                     A                      A                      A
 Frequencies --   922.8664               978.1802              1005.0617
 Red. masses --     3.2813                 1.3335                 1.6188
 Frc consts  --     1.6466                 0.7518                 0.9635
 IR Inten    --    16.9875                 0.0169                 4.8304

                    31                     32                     33
                     A                      A                      A
 Frequencies --  1048.8803              1072.0786              1094.0111
 Red. masses --     2.5457                 1.7251                 1.9201
 Frc consts  --     1.6501                 1.1682                 1.3540
 IR Inten    --     5.7220                10.9013                 1.9280

                    34                     35                     36
                     A                      A                      A
 Frequencies --  1111.5076              1132.6447              1158.5439
 Red. masses --     2.4311                 2.5538                 1.3393
 Frc consts  --     1.7696                 1.9303                 1.0592
 IR Inten    --    16.3715                48.7892                 3.5437

                    37                     38                     39
                     A                      A                      A
 Frequencies --  1194.6366              1208.9566              1245.1491
 Red. masses --     2.2376                 2.1516                 2.2109
 Frc consts  --     1.8815                 1.8528                 2.0196
 IR Inten    --     1.0326                18.2023                33.4066

                    40                     41                     42
                     A                      A                      A
 Frequencies --  1276.3940              1288.8565              1341.1723
 Red. masses --     1.7962                 1.6849                 1.3713
 Frc consts  --     1.7242                 1.6491                 1.4533
 IR Inten    --    70.7707                53.9647                 3.5393

                    43                     44                     45
                     A                      A                      A
 Frequencies --  1355.6335              1396.3008              1430.1458
 Red. masses --     2.6994                 1.4056                 1.2286
 Frc consts  --     2.9228                 1.6147                 1.4806
 IR Inten    --     9.1731                36.7036                19.7403

                    46                     47                     48
                     A                      A                      A
 Frequencies --  1458.7667              1475.7044              1493.5946
 Red. masses --     1.2894                 2.5438                 1.0635
 Frc consts  --     1.6167                 3.2639                 1.3978
 IR Inten    --    14.0499                 8.0509                19.1589

                    49                     50                     51
                     A                      A                      A
 Frequencies --  1505.2034              1510.3980              1513.2276
 Red. masses --     1.1001                 1.0884                 1.1205
 Frc consts  --     1.4685                 1.4630                 1.5117
 IR Inten    --     6.7188                34.2922                14.4718

                    52                     53                     54
                     A                      A                      A
 Frequencies --  1533.7835              1542.5685              1553.8451
 Red. masses --     1.4653                 1.7740                 1.3585
 Frc consts  --     2.0309                 2.4871                 1.9325
 IR Inten    --    35.1901               139.6428                26.6703

                    55                     56                     57
                     A                      A                      A
 Frequencies --  1605.7430              1675.5672              1767.2385
 Red. masses --     5.0864                 5.5812                 9.0926
 Frc consts  --     7.7271                 9.2321                16.7312
 IR Inten    --    58.2121               199.6840               162.6363

                    58                     59                     60
                     A                      A                      A
 Frequencies --  3072.8241              3095.0881              3098.8195
 Red. masses --     1.0365                 1.0450                 1.0489
 Frc consts  --     5.7662                 5.8983                 5.9346
 IR Inten    --     1.3814                 1.5127                15.4652

                    61                     62                     63
                     A                      A                      A
 Frequencies --  3143.2371              3148.3708              3163.2836
 Red. masses --     1.1009                 1.1024                 1.1043
 Frc consts  --     6.4082                 6.4383                 6.5104
 IR Inten    --     3.7631                 6.7430                 5.1243

                    64                     65                     66
                     A                      A                      A
 Frequencies --  3187.3551              3204.7054              3245.0127
 Red. masses --     1.1084                 1.1068                 1.0929
 Frc consts  --     6.6345                 6.6970                 6.7803
 IR Inten    --    13.1594                 4.9051                 3.2960

                    67                     68                     69
                     A                      A                      A
 Frequencies --  3251.5873              3264.7613              3625.1350
 Red. masses --     1.0917                 1.0974                 1.0794
 Frc consts  --     6.8008                 6.8918                 8.3573
 IR Inten    --     5.4304                 5.8496                50.9589

 - Thermochemistry -
 -------------------
 Temperature   298.150 Kelvin.  Pressure   1.00000 Atm.
 Atom     1 has atomic number  6 and mass  12.00000

 Molecular mass:   199.06382 amu.
 Principal axes and moments of inertia in atomic units:
                           1         2         3
     Eigenvalues --  1779.620493997.966365028.13399
           X            0.99900  -0.04459  -0.00295
           Y            0.04460   0.99900   0.00180
           Z            0.00287  -0.00193   0.99999
 This molecule is an asymmetric top.
 Rotational symmetry number  1.
 Warning -- assumption of classical behavior for rotation
           may cause significant error
 Rotational temperatures (Kelvin)      0.04867     0.02166     0.01723
 Rotational constants (GHZ):           1.01412     0.45141     0.35893
 Zero-point vibrational energy     538828.9 (Joules/Mol)
                                  128.78320 (Kcal/Mol)
 Warning -- explicit consideration of  19 degrees of freedom as
           vibrations may cause significant error
 Vibrational temperatures:     56.64    78.61   110.92   116.88   190.68
          (Kelvin)            236.80   269.57   341.29   366.51   421.31
                              458.93   521.07   559.16   616.73   620.47
                              656.42   711.97   787.41   859.34   919.18
                              965.19   992.48  1045.11  1144.66  1214.61
                             1246.33  1308.60  1327.80  1407.38  1446.06
                             1509.10  1542.48  1574.04  1599.21  1629.62
                             1666.88  1718.81  1739.42  1791.49  1836.44
                             1854.37  1929.65  1950.45  2008.96  2057.66
                             2098.84  2123.21  2148.95  2165.65  2173.12
                             2177.19  2206.77  2219.41  2235.63  2310.30
                             2410.76  2542.66  4421.10  4453.14  4458.50
                             4522.41  4529.80  4551.25  4585.89  4610.85
                             4668.84  4678.30  4697.26  5215.75

 Zero-point correction=                           0.205229 (Hartree/Particle)
 Thermal correction to Energy=                    0.218222
 Thermal correction to Enthalpy=                  0.219166
 Thermal correction to Gibbs Free Energy=         0.164626
 Sum of electronic and zero-point Energies=           -994.695232
 Sum of electronic and thermal Energies=              -994.682239
 Sum of electronic and thermal Enthalpies=            -994.681295
 Sum of electronic and thermal Free Energies=         -994.735835

                     E (Thermal)             CV                S
                      KCal/Mol        Cal/Mol-Kelvin    Cal/Mol-Kelvin
 Total                  136.936             47.803            114.789
 Electronic               0.000              0.000              0.000
 Translational            0.889              2.981             41.770
 Rotational               0.889              2.981             31.948
 Vibrational            135.159             41.841             41.071
 Vibration     1          0.594              1.981              5.291
 Vibration     2          0.596              1.976              4.642
 Vibration     3          0.599              1.964              3.964
 Vibration     4          0.600              1.962              3.861
 Vibration     5          0.613              1.921              2.909
 Vibration     6          0.623              1.886              2.496
 Vibration     7          0.632              1.857              2.254
 Vibration     8          0.656              1.784              1.824
 Vibration     9          0.665              1.755              1.698
 Vibration    10          0.688              1.687              1.458
 Vibration    11          0.705              1.637              1.315
 Vibration    12          0.736              1.550              1.113
 Vibration    13          0.757              1.494              1.005
 Vibration    14          0.790              1.408              0.863
 Vibration    15          0.792              1.402              0.855
 Vibration    16          0.814              1.347              0.777
 Vibration    17          0.850              1.261              0.671
 Vibration    18          0.902              1.146              0.550
 Vibration    19          0.955              1.038              0.454

 Optimization completed.
    -- Stationary point found.
 Normal termination of Gaussian 09 at Fri Feb 16 20:41:16 2018.
