 Gaussian 09, Revision C.01,
 Gaussian 09:  AM64L-G09RevC.01 23-Sep-2011

 ----------------------------------------------------------------------
 #HF/6-31G* Geom=AllCheck Guess=Read Pop=(MK,ReadRadii) Integral=(Grid=
 UltraFine) iop(6/33=2)
 ----------------------------------------------------------------------

 Structure from the checkpoint file:  frag21-conf0.chk
 -----------------------------
 Optimization for frag21-conf0
 -----------------------------
 Charge =  1 Multiplicity = 1

                         Standard orientation:
 ---------------------------------------------------------------------
 Center     Atomic      Atomic             Coordinates (Angstroms)
 Number     Number       Type             X           Y           Z
 ---------------------------------------------------------------------
      1          6           0       -2.359735    0.872161    0.647412
      2          6           0       -0.901887   -0.557030   -0.631885
      3          6           0       -1.390610    1.846941    0.567935
      4          6           0       -2.110248   -0.361796    0.034753
      5          6           0        0.050279    0.454464   -0.688008
      6          6           0        2.623912   -0.744963    0.383243
      7          6           0        3.542347   -1.838831    0.873846
      8          6           0        0.795337    2.738752   -0.052152
      9          6           0        1.347614    0.213134   -1.450464
     10          7           0       -0.214687    1.649309   -0.084268
     11          7           0        2.095720   -0.893264   -0.878984
     12          8           0        2.330648    0.243966    1.049353
     13         17           0       -3.283587   -1.618266    0.097497
     14          1           0       -3.284644    1.068292    1.176286
     15          1           0       -0.683452   -1.505501   -1.108357
     16          1           0       -1.522361    2.817396    1.029196
     17          1           0        4.565703   -1.449828    0.913505
     18          1           0        3.257084   -2.108675    1.893850
     19          1           0        3.528624   -2.732389    0.244055
     20          1           0        1.703188    2.336333    0.400203
     21          1           0        0.981222    3.106691   -1.062732
     22          1           0        0.402227    3.551897    0.555821
     23          1           0        1.088129   -0.050154   -2.480415
     24          1           0        1.958023    1.117205   -1.485391
     25          1           0        2.432756   -1.621765   -1.493602
 ---------------------------------------------------------------------

 SCF Done:  E(RHF) =  -990.853488322     A.U. after   14 cycles

 The electronic state is 1-A.
 Alpha  occ. eigenvalues -- -104.98366 -20.66323 -15.84383 -15.73704 -11.50203
 Alpha  occ. eigenvalues --  -11.49612 -11.49104 -11.48460 -11.44540 -11.42746
 Alpha  occ. eigenvalues --  -11.42434 -11.42278 -11.35214 -10.71675  -8.18615
 Alpha  occ. eigenvalues --   -8.18247  -8.18230  -1.51871  -1.50482  -1.37536
 Alpha  occ. eigenvalues --   -1.34409  -1.25039  -1.24028  -1.15032  -1.12897
 Alpha  occ. eigenvalues --   -1.09630  -1.05783  -0.99415  -0.93035  -0.88838
 Alpha  occ. eigenvalues --   -0.88191  -0.84461  -0.82804  -0.80176  -0.79232
 Alpha  occ. eigenvalues --   -0.78854  -0.77883  -0.74335  -0.72698  -0.72098
 Alpha  occ. eigenvalues --   -0.71434  -0.70863  -0.70306  -0.69275  -0.67207
 Alpha  occ. eigenvalues --   -0.65083  -0.63356  -0.60496  -0.56257  -0.54687
 Alpha  occ. eigenvalues --   -0.53762  -0.52186
 Alpha virt. eigenvalues --   -0.09021  -0.04792   0.04253   0.05801   0.08203
 Alpha virt. eigenvalues --    0.09282   0.11550   0.13435   0.13849   0.14837
 Alpha virt. eigenvalues --    0.16263   0.16939   0.17276   0.19054   0.19492

 Mulliken atomic charges:
              1
     1  C   -0.256180
     2  C   -0.251118
     3  C    0.171881
     4  C   -0.045210
     5  C    0.466768
     6  C    0.766336
     7  C   -0.588034
     8  C   -0.353979
     9  C   -0.174753
    10  N   -0.662151
    11  N   -0.800178
    12  O   -0.634470
    13  Cl   0.145310
    14  H    0.301842
    15  H    0.286885
    16  H    0.298245
    17  H    0.235677
    18  H    0.237947
    19  H    0.193208
    20  H    0.294570
    21  H    0.228617
    22  H    0.230490
    23  H    0.247124
    24  H    0.242755
    25  H    0.418414
 Sum of Mulliken atomic charges =   1.00000

 Dipole moment (field-independent basis, Debye):
    X=              0.5250    Y=              2.5132    Z=             -2.8182  Tot=              3.8124
 Quadrupole moment (field-independent basis, Debye-Ang):
   XX=            -57.0999   YY=            -56.4896   ZZ=            -76.0913
   XY=            -10.9393   XZ=            -10.0070   YZ=              3.2045

 Normal termination of Gaussian 09 at Sat Feb 17 20:59:44 2018.
