 Gaussian 09, Revision C.01,
 Gaussian 09:  AM64L-G09RevC.01 23-Sep-2011

 ---------------------------------------------------------
 #B3LYP/6-31G* Integral=(Grid=UltraFine) freq Opt pop=none
 ---------------------------------------------------------

 99/9=1/99;
 -----------------------------
 Optimization for frag54-conf1
 -----------------------------
 Charge =  0 Multiplicity = 1

 SCF Done:  E(RB3LYP) =  -594.095232153     A.U. after   15 cycles
 SCF Done:  E(RB3LYP) =  -594.097047241     A.U. after   12 cycles
 SCF Done:  E(RB3LYP) =  -594.097179344     A.U. after   10 cycles
 SCF Done:  E(RB3LYP) =  -594.097179253     A.U. after   10 cycles
 SCF Done:  E(RB3LYP) =  -594.097227821     A.U. after   10 cycles
 SCF Done:  E(RB3LYP) =  -594.097296093     A.U. after   11 cycles
 SCF Done:  E(RB3LYP) =  -594.097549720     A.U. after   13 cycles
 SCF Done:  E(RB3LYP) =  -594.097816146     A.U. after   13 cycles
 SCF Done:  E(RB3LYP) =  -594.097403475     A.U. after   13 cycles
 SCF Done:  E(RB3LYP) =  -594.097898599     A.U. after   15 cycles
 SCF Done:  E(RB3LYP) =  -594.099637316     A.U. after   13 cycles
 SCF Done:  E(RB3LYP) =  -594.099777848     A.U. after   12 cycles
 SCF Done:  E(RB3LYP) =  -594.099792742     A.U. after   10 cycles
 SCF Done:  E(RB3LYP) =  -594.099800937     A.U. after    9 cycles
 SCF Done:  E(RB3LYP) =  -594.099812626     A.U. after   10 cycles
 SCF Done:  E(RB3LYP) =  -594.099815832     A.U. after    9 cycles
 SCF Done:  E(RB3LYP) =  -594.099817029     A.U. after    9 cycles
 SCF Done:  E(RB3LYP) =  -594.099817235     A.U. after    7 cycles
 SCF Done:  E(RB3LYP) =  -594.099817346     A.U. after    7 cycles
 Optimization completed.
    -- Stationary point found.
 Normal termination of Gaussian 09 at Fri Feb 16 22:50:52 2018.

 --------------------------------------------------------------------
 #N Geom=AllCheck Guess=TCheck SCRF=Check GenChk RB3LYP/6-31G(d) Freq
 --------------------------------------------------------------------

 Structure from the checkpoint file:  frag54-conf1.chk
 -----------------------------
 Optimization for frag54-conf1
 -----------------------------
 Charge =  0 Multiplicity = 1

                         Standard orientation:
 ---------------------------------------------------------------------
 Center     Atomic      Atomic             Coordinates (Angstroms)
 Number     Number       Type             X           Y           Z
 ---------------------------------------------------------------------
      1          6           0       -2.330988    1.961551    0.418356
      2          6           0       -1.024554    2.194073   -0.029006
      3          6           0       -2.832825    0.669327    0.489662
      4          6           0       -0.720817   -0.189693   -0.341832
      5          6           0       -0.218469    1.120586   -0.407970
      6          6           0       -2.024557   -0.414369    0.106845
      7          6           0        2.778203   -0.339038    0.038108
      8          6           0        3.748541   -0.660803    1.165720
      9          6           0       -1.841051   -2.778766   -0.180734
     10          6           0        1.206977    1.343745   -0.880088
     11          7           0        2.221891    0.909431    0.079865
     12          8           0        2.530064   -1.149316   -0.849697
     13          8           0       -2.605382   -1.645750    0.204951
     14          1           0       -2.960548    2.797644    0.711642
     15          1           0       -0.640362    3.209852   -0.086302
     16          1           0       -3.843377    0.468571    0.831570
     17          1           0       -0.076959   -1.007502   -0.645100
     18          1           0        3.339648   -1.483516    1.761493
     19          1           0        4.688123   -1.010753    0.728650
     20          1           0        3.956273    0.186467    1.826782
     21          1           0       -2.489226   -3.643066   -0.024267
     22          1           0       -0.937318   -2.885031    0.433153
     23          1           0       -1.549920   -2.728293   -1.237843
     24          1           0        1.401012    0.779138   -1.795447
     25          1           0        1.371273    2.405491   -1.093573
     26          1           0        2.347942    1.465826    0.913801
 ---------------------------------------------------------------------

 SCF Done:  E(RB3LYP) =  -594.099817346     A.U. after    1 cycles

 Isotropic polarizability for W=    0.000000      113.66 Bohr**3.
 End of Minotr Frequency-dependent properties file   721 does not exist.

                     1                      2                      3
                     A                      A                      A
 Frequencies --    29.2086                43.0134                57.6247
 Red. masses --     3.4024                 1.8101                 3.6867
 Frc consts  --     0.0017                 0.0020                 0.0072
 IR Inten    --     2.9971                 0.6553                13.2875

                     4                      5                      6
                     A                      A                      A
 Frequencies --    67.1956                98.1920               161.2755
 Red. masses --     1.8917                 3.2523                 4.3174
 Frc consts  --     0.0050                 0.0185                 0.0662
 IR Inten    --     3.2454                 3.7379                 1.9048

                     7                      8                      9
                     A                      A                      A
 Frequencies --   181.9561               218.3614               272.9208
 Red. masses --     3.5060                 1.8935                 3.0856
 Frc consts  --     0.0684                 0.0532                 0.1354
 IR Inten    --     2.6372                 1.7005                 2.8489

                    10                     11                     12
                     A                      A                      A
 Frequencies --   276.9284               306.9328               355.5631
 Red. masses --     1.8710                 3.7531                 2.2808
 Frc consts  --     0.0845                 0.2083                 0.1699
 IR Inten    --     0.7500                 0.0450                 3.3141

                    13                     14                     15
                     A                      A                      A
 Frequencies --   438.3521               458.6495               463.1968
 Red. masses --     3.1279                 1.3078                 3.9840
 Frc consts  --     0.3541                 0.1621                 0.5036
 IR Inten    --     4.8939               106.6026                 0.2639

                    16                     17                     18
                     A                      A                      A
 Frequencies --   483.0939               546.1108               562.5803
 Red. masses --     3.1753                 4.4334                 4.8646
 Frc consts  --     0.4366                 0.7790                 0.9071
 IR Inten    --    15.0598                 9.2091                 6.2476

                    19                     20                     21
                     A                      A                      A
 Frequencies --   611.7145               625.7489               668.1245
 Red. masses --     4.1503                 2.6163                 3.7486
 Frc consts  --     0.9150                 0.6036                 0.9859
 IR Inten    --     5.7590                 4.1981                 1.0227

                    22                     23                     24
                     A                      A                      A
 Frequencies --   715.9613               752.8849               804.8202
 Red. masses --     2.7885                 3.4606                 1.6100
 Frc consts  --     0.8422                 1.1557                 0.6144
 IR Inten    --     9.8177                27.5364                27.4363

                    25                     26                     27
                     A                      A                      A
 Frequencies --   855.9874               892.6066               909.5712
 Red. masses --     2.6583                 1.4045                 1.4365
 Frc consts  --     1.1476                 0.6593                 0.7002
 IR Inten    --     2.0909                 0.8109                21.5831

                    28                     29                     30
                     A                      A                      A
 Frequencies --   953.7538               968.2646              1001.4193
 Red. masses --     3.6106                 1.2566                 1.7151
 Frc consts  --     1.9351                 0.6941                 1.0134
 IR Inten    --     2.4377                 0.3875                 5.0082

                    31                     32                     33
                     A                      A                      A
 Frequencies --  1011.8520              1039.2632              1067.8504
 Red. masses --     5.8218                 2.5636                 1.7153
 Frc consts  --     3.5119                 1.6314                 1.1524
 IR Inten    --     1.8605                 0.6860                 8.3381

                    34                     35                     36
                     A                      A                      A
 Frequencies --  1080.5411              1099.0721              1117.5166
 Red. masses --     4.6736                 2.9727                 1.5913
 Frc consts  --     3.2150                 2.1157                 1.1709
 IR Inten    --    35.0025                17.0856                 5.0425

                    37                     38                     39
                     A                      A                      A
 Frequencies --  1183.5966              1193.7972              1205.8392
 Red. masses --     1.2722                 1.1667                 1.6793
 Frc consts  --     1.0500                 0.9797                 1.4386
 IR Inten    --     0.7807                 3.8705                34.2348

                    40                     41                     42
                     A                      A                      A
 Frequencies --  1225.3138              1268.7735              1293.4604
 Red. masses --     1.5396                 1.4537                 1.7888
 Frc consts  --     1.3619                 1.3787                 1.7633
 IR Inten    --     2.3412                17.6610               134.9294

                    43                     44                     45
                     A                      A                      A
 Frequencies --  1308.7404              1351.1544              1380.0722
 Red. masses --     4.2114                 1.3763                 3.2844
 Frc consts  --     4.2499                 1.4804                 3.6857
 IR Inten    --   190.7733                 4.0102                28.8352

                    46                     47                     48
                     A                      A                      A
 Frequencies --  1401.1053              1425.8455              1483.9567
 Red. masses --     1.4038                 1.2625                 1.9251
 Frc consts  --     1.6237                 1.5123                 2.4977
 IR Inten    --    20.9511                23.0079                41.2150

                    49                     50                     51
                     A                      A                      A
 Frequencies --  1499.7465              1501.7928              1509.3141
 Red. masses --     1.0920                 1.0758                 1.4874
 Frc consts  --     1.4471                 1.4296                 1.9964
 IR Inten    --    18.6195                 0.7525                 1.8709

                    52                     53                     54
                     A                      A                      A
 Frequencies --  1515.4812              1520.7115              1532.3959
 Red. masses --     1.0676                 1.0474                 1.1572
 Frc consts  --     1.4447                 1.4272                 1.6011
 IR Inten    --    17.7164                 5.7637                66.0681

                    55                     56                     57
                     A                      A                      A
 Frequencies --  1546.3151              1557.6453              1652.5517
 Red. masses --     2.0293                 1.8888                 6.0046
 Frc consts  --     2.8589                 2.7000                 9.6615
 IR Inten    --    45.7511               172.4105                19.7437

                    58                     59                     60
                     A                      A                      A
 Frequencies --  1660.1178              1773.6622              3030.7399
 Red. masses --     5.4493                 8.8955                 1.0341
 Frc consts  --     8.8484                16.4878                 5.5962
 IR Inten    --    99.4442               194.3503                43.3158

                    61                     62                     63
                     A                      A                      A
 Frequencies --  3063.8022              3072.5566              3090.9468
 Red. masses --     1.0357                 1.0646                 1.1068
 Frc consts  --     5.7281                 5.9218                 6.2300
 IR Inten    --     8.6324                33.5530                38.5174

                    64                     65                     66
                     A                      A                      A
 Frequencies --  3134.9561              3135.6459              3145.8509
 Red. masses --     1.1014                 1.1015                 1.1021
 Frc consts  --     6.3776                 6.3812                 6.4262
 IR Inten    --     1.2760                15.5824                11.0647

                    67                     68                     69
                     A                      A                      A
 Frequencies --  3156.8826              3177.1015              3194.8806
 Red. masses --     1.1007                 1.0870                 1.0918
 Frc consts  --     6.4632                 6.4645                 6.5660
 IR Inten    --    28.9386                 8.4121                25.1059

                    70                     71                     72
                     A                      A                      A
 Frequencies --  3215.8945              3229.4057              3621.2299
 Red. masses --     1.0942                 1.0903                 1.0775
 Frc consts  --     6.6676                 6.6995                 8.3252
 IR Inten    --    11.5025                 2.6225                15.2210

 - Thermochemistry -
 -------------------
 Temperature   298.150 Kelvin.  Pressure   1.00000 Atm.
 Atom     1 has atomic number  6 and mass  12.00000

 Molecular mass:   179.09463 amu.
 Principal axes and moments of inertia in atomic units:
                           1         2         3
     Eigenvalues --  1595.783773514.867414665.25486
           X            0.99990   0.00518   0.01278
           Y           -0.00515   0.99998  -0.00219
           Z           -0.01279   0.00212   0.99992
 This molecule is an asymmetric top.
 Rotational symmetry number  1.
 Warning -- assumption of classical behavior for rotation
           may cause significant error
 Rotational temperatures (Kelvin)      0.05428     0.02464     0.01857
 Rotational constants (GHZ):           1.13094     0.51346     0.38685
 Zero-point vibrational energy     570973.9 (Joules/Mol)
                                  136.46605 (Kcal/Mol)
 Warning -- explicit consideration of  19 degrees of freedom as
           vibrations may cause significant error
 Vibrational temperatures:     42.02    61.89    82.91    96.68   141.28
          (Kelvin)            232.04   261.79   314.17   392.67   398.44
                              441.61   511.58   630.69   659.89   666.44
                              695.06   785.73   809.43   880.12   900.31
                              961.28  1030.11  1083.23  1157.96  1231.57
                             1284.26  1308.67  1372.24  1393.12  1440.82
                             1455.83  1495.27  1536.40  1554.66  1581.32
                             1607.86  1702.93  1717.61  1734.93  1762.95
                             1825.48  1861.00  1882.98  1944.01  1985.61
                             2015.88  2051.47  2135.08  2157.80  2160.74
                             2171.56  2180.44  2187.96  2204.77  2224.80
                             2241.10  2377.65  2388.54  2551.90  4360.55
                             4408.12  4420.72  4447.18  4510.50  4511.49
                             4526.17  4542.04  4571.13  4596.71  4626.95
                             4646.39  5210.14

 Zero-point correction=                           0.217472 (Hartree/Particle)
 Thermal correction to Energy=                    0.230549
 Thermal correction to Enthalpy=                  0.231493
 Thermal correction to Gibbs Free Energy=         0.176142
 Sum of electronic and zero-point Energies=           -593.882345
 Sum of electronic and thermal Energies=              -593.869268
 Sum of electronic and thermal Enthalpies=            -593.868324
 Sum of electronic and thermal Free Energies=         -593.923675

                     E (Thermal)             CV                S
                      KCal/Mol        Cal/Mol-Kelvin    Cal/Mol-Kelvin
 Total                  144.672             47.804            116.496
 Electronic               0.000              0.000              0.000
 Translational            0.889              2.981             41.455
 Rotational               0.889              2.981             31.637
 Vibrational            142.894             41.842             43.404
 Vibration     1          0.593              1.984              5.882
 Vibration     2          0.595              1.980              5.115
 Vibration     3          0.596              1.974              4.537
 Vibration     4          0.598              1.970              4.234
 Vibration     5          0.604              1.950              3.490
 Vibration     6          0.622              1.890              2.535
 Vibration     7          0.630              1.864              2.308
 Vibration     8          0.646              1.813              1.973
 Vibration     9          0.676              1.723              1.578
 Vibration    10          0.678              1.716              1.553
 Vibration    11          0.697              1.661              1.379
 Vibration    12          0.731              1.564              1.141
 Vibration    13          0.799              1.387              0.832
 Vibration    14          0.817              1.342              0.770
 Vibration    15          0.821              1.332              0.757
 Vibration    16          0.839              1.288              0.702
 Vibration    17          0.901              1.148              0.552
 Vibration    18          0.918              1.112              0.519
 Vibration    19          0.971              1.007              0.430

 Normal termination of Gaussian 09 at Fri Feb 16 23:12:21 2018.
