 Gaussian 09, Revision C.01,
 Gaussian 09:  AM64L-G09RevC.01 23-Sep-2011

 ----------------------------------------------------------------------
 #HF/6-31G* Geom=AllCheck Guess=Read Pop=(MK,ReadRadii) Integral=(Grid=
 UltraFine) iop(6/33=2)
 ----------------------------------------------------------------------

 Structure from the checkpoint file:  frag54-conf1.chk
 -----------------------------
 Optimization for frag54-conf1
 -----------------------------
 Charge =  0 Multiplicity = 1

                         Standard orientation:
 ---------------------------------------------------------------------
 Center     Atomic      Atomic             Coordinates (Angstroms)
 Number     Number       Type             X           Y           Z
 ---------------------------------------------------------------------
      1          6           0       -2.330988    1.961551    0.418356
      2          6           0       -1.024554    2.194073   -0.029006
      3          6           0       -2.832825    0.669327    0.489662
      4          6           0       -0.720817   -0.189693   -0.341832
      5          6           0       -0.218469    1.120586   -0.407970
      6          6           0       -2.024557   -0.414369    0.106845
      7          6           0        2.778203   -0.339038    0.038108
      8          6           0        3.748541   -0.660803    1.165720
      9          6           0       -1.841051   -2.778766   -0.180734
     10          6           0        1.206977    1.343745   -0.880088
     11          7           0        2.221891    0.909431    0.079865
     12          8           0        2.530064   -1.149316   -0.849697
     13          8           0       -2.605382   -1.645750    0.204951
     14          1           0       -2.960548    2.797644    0.711642
     15          1           0       -0.640362    3.209852   -0.086302
     16          1           0       -3.843377    0.468571    0.831570
     17          1           0       -0.076959   -1.007502   -0.645100
     18          1           0        3.339648   -1.483516    1.761493
     19          1           0        4.688123   -1.010753    0.728650
     20          1           0        3.956273    0.186467    1.826782
     21          1           0       -2.489226   -3.643066   -0.024267
     22          1           0       -0.937318   -2.885031    0.433153
     23          1           0       -1.549920   -2.728293   -1.237843
     24          1           0        1.401012    0.779138   -1.795447
     25          1           0        1.371273    2.405491   -1.093573
     26          1           0        2.347942    1.465826    0.913801
 ---------------------------------------------------------------------

 SCF Done:  E(RHF) =  -590.431548176     A.U. after   14 cycles

 The electronic state is 1-A.
 Alpha  occ. eigenvalues --  -20.58456 -20.52325 -15.59256 -11.35722 -11.29737
 Alpha  occ. eigenvalues --  -11.27990 -11.27126 -11.24374 -11.24153 -11.23804
 Alpha  occ. eigenvalues --  -11.22668 -11.22515 -11.22326  -1.40051  -1.37441
 Alpha  occ. eigenvalues --   -1.23024  -1.14255  -1.04462  -1.00853  -1.00226
 Alpha  occ. eigenvalues --   -0.94367  -0.91640  -0.81445  -0.80437  -0.78192
 Alpha  occ. eigenvalues --   -0.70834  -0.69019  -0.66064  -0.65532  -0.64874
 Alpha  occ. eigenvalues --   -0.64407  -0.62048  -0.60749  -0.58532  -0.57798
 Alpha  occ. eigenvalues --   -0.57097  -0.55847  -0.54138  -0.52491  -0.51515
 Alpha  occ. eigenvalues --   -0.50598  -0.49851  -0.47825  -0.45747  -0.42047
 Alpha  occ. eigenvalues --   -0.39023  -0.32882  -0.30491
 Alpha virt. eigenvalues --    0.13617   0.16051   0.19395   0.21518   0.24702
 Alpha virt. eigenvalues --    0.25568   0.26799   0.28503   0.29951   0.31211
 Alpha virt. eigenvalues --    0.31342   0.32131   0.32382   0.32786   0.33660

 Mulliken atomic charges:
              1
     1  C   -0.182227
     2  C   -0.255892
     3  C   -0.252251
     4  C   -0.325054
     5  C    0.044013
     6  C    0.442611
     7  C    0.764766
     8  C   -0.575610
     9  C   -0.189126
    10  C   -0.167406
    11  N   -0.788481
    12  O   -0.636273
    13  O   -0.663493
    14  H    0.203683
    15  H    0.191439
    16  H    0.216231
    17  H    0.257029
    18  H    0.205473
    19  H    0.211116
    20  H    0.169108
    21  H    0.189157
    22  H    0.166887
    23  H    0.169736
    24  H    0.233344
    25  H    0.187348
    26  H    0.383872
 Sum of Mulliken atomic charges =   0.00000

 Dipole moment (field-independent basis, Debye):
    X=              1.3645    Y=              1.9024    Z=              2.2090  Tot=              3.2187
 Quadrupole moment (field-independent basis, Debye-Ang):
   XX=            -76.3431   YY=            -69.4986   ZZ=            -78.8923
   XY=              4.6282   XZ=              7.3513   YZ=             -0.5625

 Normal termination of Gaussian 09 at Sat Feb 17 21:06:41 2018.
