 Gaussian 09, Revision C.01,
 Gaussian 09:  AM64L-G09RevC.01 23-Sep-2011

 ----------------------------------------------------------------------
 #HF/6-31G* Geom=AllCheck Guess=Read Pop=(MK,ReadRadii) Integral=(Grid=
 UltraFine) iop(6/33=2)
 ----------------------------------------------------------------------

 Structure from the checkpoint file:  frag41-conf1.chk
 -----------------------------
 Optimization for frag41-conf1
 -----------------------------
 Charge =  1 Multiplicity = 1

                         Standard orientation:
 ---------------------------------------------------------------------
 Center     Atomic      Atomic             Coordinates (Angstroms)
 Number     Number       Type             X           Y           Z
 ---------------------------------------------------------------------
      1          6           0        3.050328   -0.499276   -0.137694
      2          6           0       -0.981789    1.723488   -0.476852
      3          6           0       -3.493157   -2.978853    0.349540
      4          6           0       -2.032916   -3.291702   -0.001990
      5          6           0       -3.935983   -1.642913   -0.261236
      6          6           0       -1.095842   -2.138116    0.393450
      7          6           0       -2.998214   -0.491453    0.140562
      8          6           0       -1.537834   -0.802999   -0.249751
      9          6           0        5.318179   -1.314510    0.134965
     10          6           0        4.826221    1.058675    0.644454
     11          6           0       -2.128316    3.854821   -0.353524
     12          6           0       -2.095803    2.429660    1.657787
     13          6           0        2.011256    0.650979   -0.064762
     14          6           0       -0.550446    0.345908    0.097531
     15          7           0        4.322341   -0.239350    0.202336
     16          7           0       -1.687000    2.598498    0.265223
     17          7           0        0.748080    0.082684   -0.629506
     18          8           0        2.630539   -1.604583   -0.503611
     19          8           0       -0.633370    1.940869   -1.647310
     20          1           0       -4.146065   -3.787266    0.002187
     21          1           0       -3.604024   -2.935533    1.442604
     22          1           0       -1.704747   -4.210975    0.495804
     23          1           0       -1.944125   -3.473487   -1.082319
     24          1           0       -3.952647   -1.725596   -1.357094
     25          1           0       -4.958790   -1.399463    0.047628
     26          1           0       -1.107575   -2.017990    1.487377
     27          1           0       -0.064818   -2.404505    0.124268
     28          1           0       -3.332876    0.437866   -0.334152
     29          1           0       -3.060760   -0.342705    1.228041
     30          1           0       -1.512503   -0.908404   -1.345843
     31          1           0        6.122869   -1.027034   -0.549877
     32          1           0        4.837777   -2.222880   -0.223046
     33          1           0        5.742772   -1.488002    1.129446
     34          1           0        5.293469    0.956816    1.630007
     35          1           0        4.029480    1.798528    0.720279
     36          1           0        5.579532    1.429856   -0.059464
     37          1           0       -3.221391    3.916344   -0.322598
     38          1           0       -1.787206    3.883932   -1.386056
     39          1           0       -1.711791    4.703556    0.199554
     40          1           0       -1.741987    3.284183    2.245051
     41          1           0       -1.692276    1.518165    2.094256
     42          1           0       -3.188210    2.390238    1.729286
     43          1           0        1.836973    0.959693    0.969112
     44          1           0        2.296180    1.527535   -0.648896
     45          1           0       -0.329483    0.357153    1.166160
     46          1           0        0.562044    0.508895   -1.561445
     47          1           0        0.964787   -0.934274   -0.734148
 ---------------------------------------------------------------------

 SCF Done:  E(RHF) =  -859.352212312     A.U. after   13 cycles

 The electronic state is 1-A.
 Alpha  occ. eigenvalues --  -20.67683 -20.67080 -15.82062 -15.73785 -15.73731
 Alpha  occ. eigenvalues --  -11.51066 -11.50420 -11.45562 -11.45176 -11.39703
 Alpha  occ. eigenvalues --  -11.39533 -11.37781 -11.37154 -11.37148 -11.34571
 Alpha  occ. eigenvalues --  -11.34380 -11.32322 -11.32264 -11.31500  -1.53668
 Alpha  occ. eigenvalues --   -1.52613  -1.44590  -1.38671  -1.38228  -1.24926
 Alpha  occ. eigenvalues --   -1.18561  -1.13813  -1.11720  -1.09951  -1.09886
 Alpha  occ. eigenvalues --   -1.09606  -1.06173  -1.03992  -0.95754  -0.94655
 Alpha  occ. eigenvalues --   -0.92886  -0.89182  -0.87633  -0.86867  -0.84313
 Alpha  occ. eigenvalues --   -0.82388  -0.82166  -0.79312  -0.79003  -0.78637
 Alpha  occ. eigenvalues --   -0.76780  -0.76586  -0.74785  -0.73129  -0.71816
 Alpha  occ. eigenvalues --   -0.71198  -0.70937  -0.70133  -0.69717  -0.68646
 Alpha  occ. eigenvalues --   -0.68181  -0.68095  -0.67562  -0.66424  -0.65848
 Alpha  occ. eigenvalues --   -0.65569  -0.65490  -0.64000  -0.63246  -0.62775
 Alpha  occ. eigenvalues --   -0.60338  -0.59471  -0.57894  -0.57167  -0.56042
 Alpha  occ. eigenvalues --   -0.54512  -0.53961  -0.50841  -0.50604
 Alpha virt. eigenvalues --    0.03139   0.04222   0.07138   0.09353   0.09501
 Alpha virt. eigenvalues --    0.10963   0.12572   0.13254   0.14202   0.14645
 Alpha virt. eigenvalues --    0.15855   0.16859   0.17975   0.18145   0.18182

 Mulliken atomic charges:
              1
     1  C    0.809590
     2  C    0.824427
     3  C   -0.320472
     4  C   -0.318064
     5  C   -0.320712
     6  C   -0.348409
     7  C   -0.335846
     8  C   -0.188544
     9  C   -0.313725
    10  C   -0.305987
    11  C   -0.316046
    12  C   -0.299814
    13  C   -0.249281
    14  C   -0.096924
    15  N   -0.659924
    16  N   -0.664334
    17  N   -0.856849
    18  O   -0.659348
    19  O   -0.669112
    20  H    0.194900
    21  H    0.164839
    22  H    0.195060
    23  H    0.171986
    24  H    0.173835
    25  H    0.192307
    26  H    0.169056
    27  H    0.187793
    28  H    0.190546
    29  H    0.164635
    30  H    0.200592
    31  H    0.200566
    32  H    0.251546
    33  H    0.198628
    34  H    0.214184
    35  H    0.183361
    36  H    0.215946
    37  H    0.198985
    38  H    0.253531
    39  H    0.194356
    40  H    0.209538
    41  H    0.180567
    42  H    0.212549
    43  H    0.249397
    44  H    0.270105
    45  H    0.235721
    46  H    0.494507
    47  H    0.520338
 Sum of Mulliken atomic charges =   1.00000

 Dipole moment (field-independent basis, Debye):
    X=              3.4476    Y=              3.8434    Z=              3.4377  Tot=              6.2029
 Quadrupole moment (field-independent basis, Debye-Ang):
   XX=            -60.3154   YY=            -99.8593   ZZ=           -114.4267
   XY=              2.3217   XZ=              0.1675   YZ=              6.4561

 Normal termination of Gaussian 09 at Sat Feb 17 21:07:27 2018.
