 Gaussian 09, Revision C.01,
 Gaussian 09:  AM64L-G09RevC.01 23-Sep-2011

 ---------------------------------------------------------
 #B3LYP/6-31G* Integral=(Grid=UltraFine) freq Opt pop=none
 ---------------------------------------------------------

 99/9=1/99;
 -----------------------------
 Optimization for frag41-conf1
 -----------------------------
 Charge =  1 Multiplicity = 1

 SCF Done:  E(RB3LYP) =  -864.858293494     A.U. after   15 cycles
 SCF Done:  E(RB3LYP) =  -864.870830258     A.U. after   12 cycles
 SCF Done:  E(RB3LYP) =  -864.873368206     A.U. after   15 cycles
 SCF Done:  E(RB3LYP) =  -864.873811403     A.U. after   13 cycles
 SCF Done:  E(RB3LYP) =  -864.874833289     A.U. after   13 cycles
 SCF Done:  E(RB3LYP) =  -864.876149259     A.U. after   13 cycles
 SCF Done:  E(RB3LYP) =  -864.876522278     A.U. after   12 cycles
 SCF Done:  E(RB3LYP) =  -864.877149144     A.U. after   12 cycles
 SCF Done:  E(RB3LYP) =  -864.877985444     A.U. after   14 cycles
 SCF Done:  E(RB3LYP) =  -864.878490161     A.U. after   12 cycles
 SCF Done:  E(RB3LYP) =  -864.879294954     A.U. after    9 cycles
 SCF Done:  E(RB3LYP) =  -864.879296331     A.U. after    8 cycles
 SCF Done:  E(RB3LYP) =  -864.879297187     A.U. after    8 cycles
 SCF Done:  E(RB3LYP) =  -864.879297591     A.U. after    7 cycles
 SCF Done:  E(RB3LYP) =  -864.879297865     A.U. after    7 cycles
 SCF Done:  E(RB3LYP) =  -864.879298117     A.U. after    7 cycles
 SCF Done:  E(RB3LYP) =  -864.879298396     A.U. after    7 cycles
 SCF Done:  E(RB3LYP) =  -864.879298574     A.U. after    7 cycles
 SCF Done:  E(RB3LYP) =  -864.879298602     A.U. after    6 cycles
 Optimization completed.
    -- Stationary point found.
 Normal termination of Gaussian 09 at Fri Feb 16 23:13:33 2018.

 --------------------------------------------------------------------
 #N Geom=AllCheck Guess=TCheck SCRF=Check GenChk RB3LYP/6-31G(d) Freq
 --------------------------------------------------------------------

 Structure from the checkpoint file:  frag41-conf1.chk
 -----------------------------
 Optimization for frag41-conf1
 -----------------------------
 Charge =  1 Multiplicity = 1

                         Standard orientation:
 ---------------------------------------------------------------------
 Center     Atomic      Atomic             Coordinates (Angstroms)
 Number     Number       Type             X           Y           Z
 ---------------------------------------------------------------------
      1          6           0        3.050328   -0.499276   -0.137694
      2          6           0       -0.981789    1.723488   -0.476852
      3          6           0       -3.493157   -2.978853    0.349540
      4          6           0       -2.032916   -3.291702   -0.001990
      5          6           0       -3.935983   -1.642913   -0.261236
      6          6           0       -1.095842   -2.138116    0.393450
      7          6           0       -2.998214   -0.491453    0.140562
      8          6           0       -1.537834   -0.802999   -0.249751
      9          6           0        5.318179   -1.314510    0.134965
     10          6           0        4.826221    1.058675    0.644454
     11          6           0       -2.128316    3.854821   -0.353524
     12          6           0       -2.095803    2.429660    1.657787
     13          6           0        2.011256    0.650979   -0.064762
     14          6           0       -0.550446    0.345908    0.097531
     15          7           0        4.322341   -0.239350    0.202336
     16          7           0       -1.687000    2.598498    0.265223
     17          7           0        0.748080    0.082684   -0.629506
     18          8           0        2.630539   -1.604583   -0.503611
     19          8           0       -0.633370    1.940869   -1.647310
     20          1           0       -4.146065   -3.787266    0.002187
     21          1           0       -3.604024   -2.935533    1.442604
     22          1           0       -1.704747   -4.210975    0.495804
     23          1           0       -1.944125   -3.473487   -1.082319
     24          1           0       -3.952647   -1.725596   -1.357094
     25          1           0       -4.958790   -1.399463    0.047628
     26          1           0       -1.107575   -2.017990    1.487377
     27          1           0       -0.064818   -2.404505    0.124268
     28          1           0       -3.332876    0.437866   -0.334152
     29          1           0       -3.060760   -0.342705    1.228041
     30          1           0       -1.512503   -0.908404   -1.345843
     31          1           0        6.122869   -1.027034   -0.549877
     32          1           0        4.837777   -2.222880   -0.223046
     33          1           0        5.742772   -1.488002    1.129446
     34          1           0        5.293469    0.956816    1.630007
     35          1           0        4.029480    1.798528    0.720279
     36          1           0        5.579532    1.429856   -0.059464
     37          1           0       -3.221391    3.916344   -0.322598
     38          1           0       -1.787206    3.883932   -1.386056
     39          1           0       -1.711791    4.703556    0.199554
     40          1           0       -1.741987    3.284183    2.245051
     41          1           0       -1.692276    1.518165    2.094256
     42          1           0       -3.188210    2.390238    1.729286
     43          1           0        1.836973    0.959693    0.969112
     44          1           0        2.296180    1.527535   -0.648896
     45          1           0       -0.329483    0.357153    1.166160
     46          1           0        0.562044    0.508895   -1.561445
     47          1           0        0.964787   -0.934274   -0.734148
 ---------------------------------------------------------------------

 SCF Done:  E(RB3LYP) =  -864.879298602     A.U. after    1 cycles

 Isotropic polarizability for W=    0.000000      173.18 Bohr**3.
 End of Minotr Frequency-dependent properties file   721 does not exist.

                     1                      2                      3
                     A                      A                      A
 Frequencies --    21.8277                25.2224                40.2126
 Red. masses --     3.8549                 3.2874                 2.9115
 Frc consts  --     0.0011                 0.0012                 0.0028
 IR Inten    --     0.6901                 1.3368                 1.5234

                     4                      5                      6
                     A                      A                      A
 Frequencies --    53.6672                71.8731                79.0903
 Red. masses --     3.0695                 2.6832                 1.7843
 Frc consts  --     0.0052                 0.0082                 0.0066
 IR Inten    --     1.3664                 0.2235                 3.5055

                     7                      8                      9
                     A                      A                      A
 Frequencies --    80.8624                97.8244               103.7088
 Red. masses --     1.8836                 1.2942                 1.4984
 Frc consts  --     0.0073                 0.0073                 0.0095
 IR Inten    --     1.7639                 0.4373                 1.9587

                    10                     11                     12
                     A                      A                      A
 Frequencies --   112.1485               130.1448               137.4261
 Red. masses --     2.0382                 1.2544                 2.7384
 Frc consts  --     0.0151                 0.0125                 0.0305
 IR Inten    --     2.4661                 0.3221                 3.2250

                    13                     14                     15
                     A                      A                      A
 Frequencies --   151.2276               188.5028               201.1656
 Red. masses --     2.6262                 3.3696                 3.2614
 Frc consts  --     0.0354                 0.0705                 0.0778
 IR Inten    --     4.0038                 1.0271                 2.1072

                    16                     17                     18
                     A                      A                      A
 Frequencies --   215.7744               229.3677               261.6621
 Red. masses --     3.4821                 2.2883                 2.4777
 Frc consts  --     0.0955                 0.0709                 0.1000
 IR Inten    --     1.3474                 0.3759                 6.4194

                    19                     20                     21
                     A                      A                      A
 Frequencies --   263.3454               284.8228               311.1875
 Red. masses --     2.5957                 2.6656                 2.6108
 Frc consts  --     0.1061                 0.1274                 0.1490
 IR Inten    --     2.4013                 2.4067                 0.9866

                    22                     23                     24
                     A                      A                      A
 Frequencies --   337.6399               342.3289               397.3201
 Red. masses --     2.0949                 3.4985                 2.8455
 Frc consts  --     0.1407                 0.2416                 0.2647
 IR Inten    --     2.8787                11.9715                 2.7049

                    25                     26                     27
                     A                      A                      A
 Frequencies --   416.3676               425.6478               441.5662
 Red. masses --     2.3622                 2.9712                 2.9676
 Frc consts  --     0.2413                 0.3172                 0.3409
 IR Inten    --    38.1265                41.0119                 0.6099

                    28                     29                     30
                     A                      A                      A
 Frequencies --   450.8384               464.4290               497.7127
 Red. masses --     2.9083                 2.6858                 2.8771
 Frc consts  --     0.3483                 0.3413                 0.4199
 IR Inten    --    13.2952                17.4227                23.7491

                    31                     32                     33
                     A                      A                      A
 Frequencies --   536.0891               563.4109               587.6377
 Red. masses --     2.4384                 3.0448                 2.7694
 Frc consts  --     0.4129                 0.5695                 0.5634
 IR Inten    --    70.6483                17.1870                31.2912

                    34                     35                     36
                     A                      A                      A
 Frequencies --   622.0855               632.5300               725.4159
 Red. masses --     4.8430                 4.7350                 4.8999
 Frc consts  --     1.1042                 1.1162                 1.5192
 IR Inten    --     6.4134                 9.8413                 6.2406

                    37                     38                     39
                     A                      A                      A
 Frequencies --   777.1754               798.1841               803.8143
 Red. masses --     3.2350                 4.0213                 1.5523
 Frc consts  --     1.1512                 1.5094                 0.5909
 IR Inten    --    39.5615                17.8937                 0.4097

                    40                     41                     42
                     A                      A                      A
 Frequencies --   819.7225               858.2199               903.3590
 Red. masses --     2.5376                 2.0600                 2.2392
 Frc consts  --     1.0046                 0.8939                 1.0766
 IR Inten    --     0.6862                 1.7169                 4.4881

                    43                     44                     45
                     A                      A                      A
 Frequencies --   909.0880               941.7395               949.9508
 Red. masses --     1.7426                 1.6666                 2.2303
 Frc consts  --     0.8485                 0.8708                 1.1858
 IR Inten    --     5.5858                 0.7560                 3.8954

                    46                     47                     48
                     A                      A                      A
 Frequencies --   955.4322               965.9668               978.4678
 Red. masses --     3.1340                 2.7916                 2.8129
 Frc consts  --     1.6856                 1.5347                 1.5867
 IR Inten    --     5.1107                 1.1619                 5.0011

                    49                     50                     51
                     A                      A                      A
 Frequencies --  1018.9378              1045.3544              1049.6581
 Red. masses --     2.3770                 2.6355                 2.0280
 Frc consts  --     1.4540                 1.6968                 1.3165
 IR Inten    --    16.6142                19.9420                 1.2232

                    52                     53                     54
                     A                      A                      A
 Frequencies --  1071.6733              1079.2957              1083.3504
 Red. masses --     1.9122                 1.7088                 1.4615
 Frc consts  --     1.2939                 1.1728                 1.0106
 IR Inten    --     6.6030                23.4702                 4.8105

                    55                     56                     57
                     A                      A                      A
 Frequencies --  1086.5888              1091.0704              1101.6439
 Red. masses --     1.4501                 2.8345                 2.8846
 Frc consts  --     1.0087                 1.9881                 2.0626
 IR Inten    --     6.7037                 1.3011                 0.5158

                    58                     59                     60
                     A                      A                      A
 Frequencies --  1115.4250              1132.1462              1132.3097
 Red. masses --     1.1942                 1.2222                 1.2251
 Frc consts  --     0.8754                 0.9230                 0.9254
 IR Inten    --     3.0136                 0.1521                 0.1590

                    61                     62                     63
                     A                      A                      A
 Frequencies --  1158.7487              1181.3966              1183.8513
 Red. masses --     1.8686                 1.7287                 1.6113
 Frc consts  --     1.4782                 1.4215                 1.3305
 IR Inten    --    51.5056                33.7962                46.1834

                    64                     65                     66
                     A                      A                      A
 Frequencies --  1184.2488              1185.9612              1220.2432
 Red. masses --     1.5025                 1.6128                 1.3458
 Frc consts  --     1.2415                 1.3365                 1.1807
 IR Inten    --    39.3594                16.8603                 0.9521

                    67                     68                     69
                     A                      A                      A
 Frequencies --  1244.2469              1258.3047              1272.1273
 Red. masses --     1.3217                 1.4831                 3.0995
 Frc consts  --     1.2056                 1.3836                 2.9553
 IR Inten    --     4.6484                28.0633                58.8495

                    70                     71                     72
                     A                      A                      A
 Frequencies --  1276.5665              1302.4328              1304.4077
 Red. masses --     3.6956                 1.2678                 1.2919
 Frc consts  --     3.5483                 1.2671                 1.2951
 IR Inten    --    37.1873                41.1009                 0.1966

                    73                     74                     75
                     A                      A                      A
 Frequencies --  1312.6254              1330.4995              1353.9451
 Red. masses --     1.2208                 1.2840                 1.3098
 Frc consts  --     1.2393                 1.3392                 1.4147
 IR Inten    --    53.4713                33.7000                 1.2266

                    76                     77                     78
                     A                      A                      A
 Frequencies --  1360.5660              1381.1590              1384.4945
 Red. masses --     1.2842                 1.2593                 1.3538
 Frc consts  --     1.4006                 1.4153                 1.5289
 IR Inten    --     0.5233                 5.4381                 9.1953

                    79                     80                     81
                     A                      A                      A
 Frequencies --  1388.9666              1403.9385              1405.6402
 Red. masses --     1.3386                 1.4604                 1.4566
 Frc consts  --     1.5215                 1.6960                 1.6956
 IR Inten    --     6.8227                21.8355                23.0994

                    82                     83                     84
                     A                      A                      A
 Frequencies --  1419.7891              1424.3758              1460.4349
 Red. masses --     1.4188                 1.3771                 1.2204
 Frc consts  --     1.6850                 1.6461                 1.5336
 IR Inten    --    68.7595               205.8713                42.7033

                    85                     86                     87
                     A                      A                      A
 Frequencies --  1461.6670              1463.8550              1474.2060
 Red. masses --     1.3568                 1.2281                 2.0060
 Frc consts  --     1.7079                 1.5506                 2.5686
 IR Inten    --    97.4795                74.1248                28.3349

                    88                     89                     90
                     A                      A                      A
 Frequencies --  1488.1049              1502.5335              1503.5341
 Red. masses --     1.5648                 1.1887                 1.1849
 Frc consts  --     2.0417                 1.5811                 1.5782
 IR Inten    --    72.8829                 3.1654                35.4528

                    91                     92                     93
                     A                      A                      A
 Frequencies --  1506.4476              1508.2140              1512.6698
 Red. masses --     1.0474                 1.0460                 1.0877
 Frc consts  --     1.4005                 1.4018                 1.4663
 IR Inten    --     7.8128                 2.0594                 5.3294

                    94                     95                     96
                     A                      A                      A
 Frequencies --  1516.3575              1516.9212              1518.5651
 Red. masses --     1.0885                 1.0893                 1.0836
 Frc consts  --     1.4746                 1.4768                 1.4723
 IR Inten    --     5.2940                 7.2268                30.3223

                    97                     98                     99
                     A                      A                      A
 Frequencies --  1524.2187              1528.1316              1528.2846
 Red. masses --     1.0905                 1.0557                 1.0692
 Frc consts  --     1.4927                 1.4525                 1.4714
 IR Inten    --    11.2089                 5.3615                27.4457

                   100                    101                    102
                     A                      A                      A
 Frequencies --  1529.7003              1530.3748              1537.2304
 Red. masses --     1.0846                 1.0629                 1.1014
 Frc consts  --     1.4953                 1.4667                 1.5334
 IR Inten    --     1.3013                34.6698                 3.0840

                   103                    104                    105
                     A                      A                      A
 Frequencies --  1564.3226              1568.0866              1617.5352
 Red. masses --     1.3810                 1.4105                 1.1322
 Frc consts  --     1.9911                 2.0434                 1.7454
 IR Inten    --    26.0446                49.2046               146.4614

                   106                    107                    108
                     A                      A                      A
 Frequencies --  1740.0374              1760.0754              3010.3339
 Red. masses --     5.0542                 6.4041                 1.0806
 Frc consts  --     9.0162                11.6889                 5.7693
 IR Inten    --   215.4504               331.8527                 2.6992

                   109                    110                    111
                     A                      A                      A
 Frequencies --  3020.8662              3031.4126              3033.4198
 Red. masses --     1.0648                 1.0718                 1.0670
 Frc consts  --     5.7253                 5.8030                 5.7846
 IR Inten    --    16.8115                13.2764                18.6999

                   112                    113                    114
                     A                      A                      A
 Frequencies --  3038.5329              3043.9180              3061.9486
 Red. masses --     1.0661                 1.0634                 1.0369
 Frc consts  --     5.7994                 5.8053                 5.7278
 IR Inten    --     1.5844                43.3897                13.3302

                   115                    116                    117
                     A                      A                      A
 Frequencies --  3062.2257              3065.5933              3066.9761
 Red. masses --     1.0379                 1.0974                 1.0382
 Frc consts  --     5.7340                 6.0766                 5.7535
 IR Inten    --    10.4274                40.2954                44.9173

                   118                    119                    120
                     A                      A                      A
 Frequencies --  3067.8678              3090.9506              3094.5142
 Red. masses --     1.0372                 1.0971                 1.0981
 Frc consts  --     5.7515                 6.1757                 6.1953
 IR Inten    --    30.2060                28.5778                24.0874

                   121                    122                    123
                     A                      A                      A
 Frequencies --  3095.5467              3098.9223              3106.0127
 Red. masses --     1.0934                 1.1032                 1.0604
 Frc consts  --     6.1729                 6.2423                 6.0273
 IR Inten    --    26.9472                42.6427                 2.8891

                   124                    125                    126
                     A                      A                      A
 Frequencies --  3118.6822              3119.7678              3124.4928
 Red. masses --     1.1058                 1.1059                 1.1061
 Frc consts  --     6.3366                 6.3419                 6.3619
 IR Inten    --    15.0600                10.9689                 9.2449

                   127                    128                    129
                     A                      A                      A
 Frequencies --  3127.8152              3129.6378              3143.3115
 Red. masses --     1.1063                 1.0836                 1.0685
 Frc consts  --     6.3769                 6.2533                 6.2203
 IR Inten    --     9.3273                28.8794               188.8246

                   130                    131                    132
                     A                      A                      A
 Frequencies --  3166.1490              3180.7038              3197.3881
 Red. masses --     1.1071                 1.0988                 1.0966
 Frc consts  --     6.5389                 6.5497                 6.6052
 IR Inten    --     1.3765                20.7943                13.5936

                   133                    134                    135
                     A                      A                      A
 Frequencies --  3201.4688              3209.2351              3212.1503
 Red. masses --     1.0838                 1.1000                 1.0995
 Frc consts  --     6.5450                 6.6750                 6.6838
 IR Inten    --   332.1387                 0.5027                 1.6064

 - Thermochemistry -
 -------------------
 Temperature   298.150 Kelvin.  Pressure   1.00000 Atm.
 Atom     1 has atomic number  6 and mass  12.00000

 Molecular mass:   270.21815 amu.
 Principal axes and moments of inertia in atomic units:
                           1         2         3
     Eigenvalues --  4136.719688264.26746**********
           X            0.99994   0.01121   0.00032
           Y           -0.01121   0.99989   0.00945
           Z           -0.00021  -0.00945   0.99996
 This molecule is an asymmetric top.
 Rotational symmetry number  1.
 Warning -- assumption of classical behavior for rotation
           may cause significant error
 Rotational temperatures (Kelvin)      0.02094     0.01048     0.00759
 Rotational constants (GHZ):           0.43627     0.21838     0.15815
 Zero-point vibrational energy    1123835.0 (Joules/Mol)
                                  268.60302 (Kcal/Mol)
 Warning -- explicit consideration of  33 degrees of freedom as
           vibrations may cause significant error
 Vibrational temperatures:     31.41    36.29    57.86    77.22   103.41
          (Kelvin)            113.79   116.34   140.75   149.21   161.36
                              187.25   197.73   217.58   271.21   289.43
                              310.45   330.01   376.47   378.89   409.80
                              447.73   485.79   492.53   571.65   599.06
                              612.41   635.31   648.66   668.21   716.10
                              771.31   810.62   845.48   895.04   910.07
                             1043.71  1118.18  1148.41  1156.51  1179.40
                             1234.79  1299.73  1307.97  1354.95  1366.77
                             1374.65  1389.81  1407.80  1466.02  1504.03
                             1510.22  1541.90  1552.86  1558.70  1563.36
                             1569.80  1585.02  1604.85  1628.90  1629.14
                             1667.18  1699.76  1703.30  1703.87  1706.33
                             1755.66  1790.19  1810.42  1830.31  1836.69
                             1873.91  1876.75  1888.57  1914.29  1948.02
                             1957.55  1987.18  1991.98  1998.41  2019.95
                             2022.40  2042.76  2049.36  2101.24  2103.01
                             2106.16  2121.05  2141.05  2161.81  2163.25
                             2167.44  2169.98  2176.39  2181.70  2182.51
                             2184.87  2193.01  2198.64  2198.86  2200.89
                             2201.87  2211.73  2250.71  2256.12  2327.27
                             2503.52  2532.35  4331.19  4346.35  4361.52
                             4364.41  4371.77  4379.51  4405.46  4405.85
                             4410.70  4412.69  4413.97  4447.18  4452.31
                             4453.80  4458.65  4468.85  4487.08  4488.64
                             4495.44  4500.22  4502.85  4522.52  4555.38
                             4576.32  4600.32  4606.19  4617.37  4621.56

 Zero-point correction=                           0.428046 (Hartree/Particle)
 Thermal correction to Energy=                    0.449806
 Thermal correction to Enthalpy=                  0.450750
 Thermal correction to Gibbs Free Energy=         0.375301
 Sum of electronic and zero-point Energies=           -864.451252
 Sum of electronic and thermal Energies=              -864.429493
 Sum of electronic and thermal Enthalpies=            -864.428549
 Sum of electronic and thermal Free Energies=         -864.503997

                     E (Thermal)             CV                S
                      KCal/Mol        Cal/Mol-Kelvin    Cal/Mol-Kelvin
 Total                  282.257             79.371            158.795
 Electronic               0.000              0.000              0.000
 Translational            0.889              2.981             42.681
 Rotational               0.889              2.981             34.322
 Vibrational            280.480             73.409             81.792
 Vibration     1          0.593              1.985              6.461
 Vibration     2          0.593              1.985              6.174
 Vibration     3          0.594              1.981              5.249
 Vibration     4          0.596              1.976              4.677
 Vibration     5          0.598              1.967              4.101
 Vibration     6          0.600              1.963              3.913
 Vibration     7          0.600              1.962              3.870
 Vibration     8          0.603              1.951              3.497
 Vibration     9          0.605              1.946              3.383
 Vibration    10          0.607              1.939              3.231
 Vibration    11          0.612              1.923              2.944
 Vibration    12          0.614              1.916              2.839
 Vibration    13          0.619              1.901              2.657
 Vibration    14          0.633              1.856              2.243
 Vibration    15          0.638              1.838              2.122
 Vibration    16          0.645              1.817              1.994
 Vibration    17          0.652              1.796              1.884
 Vibration    18          0.669              1.743              1.651
 Vibration    19          0.670              1.740              1.639
 Vibration    20          0.683              1.702              1.505
 Vibration    21          0.700              1.652              1.356
 Vibration    22          0.718              1.600              1.223
 Vibration    23          0.721              1.591              1.201
 Vibration    24          0.764              1.476              0.973
 Vibration    25          0.780              1.435              0.904
 Vibration    26          0.787              1.414              0.873
 Vibration    27          0.801              1.379              0.822
 Vibration    28          0.810              1.359              0.793
 Vibration    29          0.822              1.329              0.753
 Vibration    30          0.853              1.255              0.664
 Vibration    31          0.891              1.170              0.574
 Vibration    32          0.919              1.110              0.517
 Vibration    33          0.945              1.058              0.471

 Normal termination of Gaussian 09 at Sat Feb 17 00:46:18 2018.
