 Gaussian 09, Revision C.01,
 Gaussian 09:  AM64L-G09RevC.01 23-Sep-2011

 ---------------------------------------------------------
 #B3LYP/6-31G* Integral=(Grid=UltraFine) freq Opt pop=none
 ---------------------------------------------------------

 99/9=1/99;
 ----------------------------
 Optimization for frag8-conf1
 ----------------------------
 Charge =  0 Multiplicity = 1

 SCF Done:  E(RB3LYP) =  -518.890958331     A.U. after   15 cycles
 SCF Done:  E(RB3LYP) =  -518.893458112     A.U. after   12 cycles
 SCF Done:  E(RB3LYP) =  -518.893752355     A.U. after   12 cycles
 SCF Done:  E(RB3LYP) =  -518.893835360     A.U. after   12 cycles
 SCF Done:  E(RB3LYP) =  -518.894011833     A.U. after   11 cycles
 SCF Done:  E(RB3LYP) =  -518.894071189     A.U. after   12 cycles
 SCF Done:  E(RB3LYP) =  -518.894093124     A.U. after   12 cycles
 SCF Done:  E(RB3LYP) =  -518.894108148     A.U. after   11 cycles
 SCF Done:  E(RB3LYP) =  -518.894149964     A.U. after   11 cycles
 SCF Done:  E(RB3LYP) =  -518.894173893     A.U. after   11 cycles
 SCF Done:  E(RB3LYP) =  -518.894219547     A.U. after    8 cycles
 SCF Done:  E(RB3LYP) =  -518.894220377     A.U. after    9 cycles
 SCF Done:  E(RB3LYP) =  -518.894223424     A.U. after   10 cycles
 SCF Done:  E(RB3LYP) =  -518.894227112     A.U. after   10 cycles
 SCF Done:  E(RB3LYP) =  -518.894228723     A.U. after   10 cycles
 SCF Done:  E(RB3LYP) =  -518.894231311     A.U. after    9 cycles
 SCF Done:  E(RB3LYP) =  -518.894232114     A.U. after    9 cycles
 SCF Done:  E(RB3LYP) =  -518.894232399     A.U. after    9 cycles
 SCF Done:  E(RB3LYP) =  -518.894232427     A.U. after    7 cycles
 Optimization completed.
    -- Stationary point found.
 Normal termination of Gaussian 09 at Fri Feb 16 18:03:34 2018.

 --------------------------------------------------------------------
 #N Geom=AllCheck Guess=TCheck SCRF=Check GenChk RB3LYP/6-31G(d) Freq
 --------------------------------------------------------------------

 Structure from the checkpoint file:  frag8-conf1.chk
 ----------------------------
 Optimization for frag8-conf1
 ----------------------------
 Charge =  0 Multiplicity = 1

                         Standard orientation:
 ---------------------------------------------------------------------
 Center     Atomic      Atomic             Coordinates (Angstroms)
 Number     Number       Type             X           Y           Z
 ---------------------------------------------------------------------
      1          6           0        2.697350   -1.393834    0.427845
      2          6           0        3.037608   -0.044075    0.417144
      3          6           0        1.416620   -1.797818    0.039613
      4          6           0        0.831453    0.507132   -0.370390
      5          6           0        2.106536    0.927663    0.015287
      6          6           0        0.473270   -0.849702   -0.361736
      7          6           0       -2.717778    0.260715    0.005873
      8          6           0        2.483431    2.391494   -0.003803
      9          6           0       -3.679190    0.582036    1.141476
     10          6           0       -0.926875   -1.265823   -0.773762
     11          7           0       -1.961557   -0.866973    0.178771
     12          8           0       -2.643880    0.965042   -0.995348
     13          1           0        3.429108   -2.135567    0.737930
     14          1           0        4.036668    0.263725    0.718994
     15          1           0        1.154640   -2.853997    0.045177
     16          1           0        0.094656    1.240360   -0.690914
     17          1           0        3.331688    2.577308   -0.674493
     18          1           0        1.649025    3.013853   -0.341081
     19          1           0        2.780923    2.741101    0.992885
     20          1           0       -3.392781    1.540230    1.587186
     21          1           0       -4.683417    0.703566    0.725354
     22          1           0       -3.708344   -0.179967    1.926780
     23          1           0       -1.204638   -0.798805   -1.722004
     24          1           0       -0.974027   -2.353129   -0.903147
     25          1           0       -1.966102   -1.316936    1.083447
 ---------------------------------------------------------------------

 SCF Done:  E(RB3LYP) =  -518.894232427     A.U. after    1 cycles

 Isotropic polarizability for W=    0.000000      109.59 Bohr**3.
 End of Minotr Frequency-dependent properties file   721 does not exist.

                     1                      2                      3
                     A                      A                      A
 Frequencies --    18.2276                29.1464                42.2285
 Red. masses --     1.0564                 3.1567                 1.8401
 Frc consts  --     0.0002                 0.0016                 0.0019
 IR Inten    --     0.3517                 2.1939                 0.7494

                     4                      5                      6
                     A                      A                      A
 Frequencies --    53.8763                67.8919               170.1441
 Red. masses --     3.1536                 1.9310                 4.3424
 Frc consts  --     0.0054                 0.0052                 0.0741
 IR Inten    --    12.2964                 2.0608                 2.3485

                     7                      8                      9
                     A                      A                      A
 Frequencies --   204.9534               219.0684               296.6930
 Red. masses --     4.5145                 3.1124                 3.3254
 Frc consts  --     0.1117                 0.0880                 0.1725
 IR Inten    --     4.4366                 0.6649                 1.3467

                    10                     11                     12
                     A                      A                      A
 Frequencies --   313.8866               387.1791               438.7920
 Red. masses --     2.6265                 2.4769                 2.7747
 Frc consts  --     0.1525                 0.2188                 0.3148
 IR Inten    --     2.5186                 0.6750                 1.7361

                    13                     14                     15
                     A                      A                      A
 Frequencies --   459.0270               473.6054               520.1280
 Red. masses --     1.4409                 2.3285                 4.4696
 Frc consts  --     0.1789                 0.3077                 0.7124
 IR Inten    --    89.3837                32.6712                 6.3759

                    16                     17                     18
                     A                      A                      A
 Frequencies --   536.1000               611.1574               617.5289
 Red. masses --     4.5697                 3.8242                 3.0545
 Frc consts  --     0.7738                 0.8416                 0.6863
 IR Inten    --     1.2773                12.7540                 0.4665

                    19                     20                     21
                     A                      A                      A
 Frequencies --   653.4318               721.4587               751.2052
 Red. masses --     3.1083                 2.6842                 3.0950
 Frc consts  --     0.7819                 0.8232                 1.0290
 IR Inten    --     1.3110                10.0847                13.1296

                    22                     23                     24
                     A                      A                      A
 Frequencies --   807.1625               858.8124               909.5941
 Red. masses --     1.6291                 2.6721                 1.3449
 Frc consts  --     0.6253                 1.1612                 0.6556
 IR Inten    --    18.6046                 2.7162                 0.0132

                    25                     26                     27
                     A                      A                      A
 Frequencies --   930.9206               948.6479               974.2303
 Red. masses --     1.6986                 2.0693                 1.2817
 Frc consts  --     0.8673                 1.0972                 0.7168
 IR Inten    --     3.6680                 2.5215                 0.0532

                    28                     29                     30
                     A                      A                      A
 Frequencies --  1001.1302              1015.5066              1023.6972
 Red. masses --     1.6638                 4.9981                 1.8388
 Frc consts  --     0.9825                 3.0368                 1.1354
 IR Inten    --     4.1988                 0.5391                 2.5380

                    31                     32                     33
                     A                      A                      A
 Frequencies --  1045.6881              1067.7824              1077.5762
 Red. masses --     2.0998                 1.7017                 1.5224
 Frc consts  --     1.3528                 1.1431                 1.0416
 IR Inten    --     2.5153                 7.7832                 4.8939

                    34                     35                     36
                     A                      A                      A
 Frequencies --  1101.1242              1130.6059              1191.0653
 Red. masses --     3.1564                 1.6133                 1.6373
 Frc consts  --     2.2549                 1.2150                 1.3685
 IR Inten    --    14.5933                 4.3044                 3.3971

                    37                     38                     39
                     A                      A                      A
 Frequencies --  1208.0057              1266.9810              1274.7933
 Red. masses --     1.1562                 1.4939                 3.2058
 Frc consts  --     0.9941                 1.4129                 3.0695
 IR Inten    --     0.6045                20.5391                 2.7460

                    40                     41                     42
                     A                      A                      A
 Frequencies --  1290.5053              1353.5062              1365.0521
 Red. masses --     1.8160                 1.5692                 2.4915
 Frc consts  --     1.7819                 1.6937                 2.7354
 IR Inten    --   141.1206                 7.8340                 1.7674

                    43                     44                     45
                     A                      A                      A
 Frequencies --  1400.0792              1425.6772              1442.9303
 Red. masses --     1.3632                 1.2634                 1.2485
 Frc consts  --     1.5744                 1.5130                 1.5315
 IR Inten    --    13.0174                22.4669                 0.3064

                    46                     47                     48
                     A                      A                      A
 Frequencies --  1479.8970              1500.6718              1504.0699
 Red. masses --     2.2242                 1.0559                 1.0938
 Frc consts  --     2.8701                 1.4010                 1.4580
 IR Inten    --     8.3944                13.4073                 7.2570

                    49                     50                     51
                     A                      A                      A
 Frequencies --  1515.5842              1516.3229              1525.8490
 Red. masses --     1.0677                 1.0454                 1.3760
 Frc consts  --     1.4450                 1.4162                 1.8875
 IR Inten    --    15.9959                 6.3123                17.3650

                    52                     53                     54
                     A                      A                      A
 Frequencies --  1542.6470              1557.2774              1648.6239
 Red. masses --     1.8592                 1.8781                 5.3955
 Frc consts  --     2.6068                 2.6836                 8.6402
 IR Inten    --    10.6634               196.7527                 5.5939

                    55                     56                     57
                     A                      A                      A
 Frequencies --  1667.1021              1777.6950              3042.4591
 Red. masses --     5.5374                 8.9641                 1.0379
 Frc consts  --     9.0674                16.6906                 5.6606
 IR Inten    --    12.2000               204.8408                30.3824

                    58                     59                     60
                     A                      A                      A
 Frequencies --  3063.4832              3065.9465              3093.1010
 Red. masses --     1.0358                 1.0662                 1.1008
 Frc consts  --     5.7274                 5.9051                 6.2051
 IR Inten    --     8.7398                36.0160                21.0751

                    61                     62                     63
                     A                      A                      A
 Frequencies --  3128.2955              3134.1808              3135.7568
 Red. masses --     1.1005                 1.0986                 1.1025
 Frc consts  --     6.3455                 6.3581                 6.3871
 IR Inten    --    15.0074                 0.6764                16.3837

                    64                     65                     66
                     A                      A                      A
 Frequencies --  3145.1203              3169.4188              3176.4520
 Red. masses --     1.1019                 1.0858                 1.0903
 Frc consts  --     6.4221                 6.4265                 6.4817
 IR Inten    --    10.8886                 0.6457                27.7532

                    67                     68                     69
                     A                      A                      A
 Frequencies --  3188.3110              3197.7794              3620.7115
 Red. masses --     1.0907                 1.0960                 1.0775
 Frc consts  --     6.5326                 6.6034                 8.3224
 IR Inten    --     5.1579                29.5101                14.5715

 - Thermochemistry -
 -------------------
 Temperature   298.150 Kelvin.  Pressure   1.00000 Atm.
 Atom     1 has atomic number  6 and mass  12.00000

 Molecular mass:   163.09971 amu.
 Principal axes and moments of inertia in atomic units:
                           1         2         3
     Eigenvalues --  1115.239073407.736944084.77634
           X            0.99982   0.01520  -0.01145
           Y           -0.01507   0.99982   0.01151
           Z            0.01162  -0.01134   0.99987
 This molecule is an asymmetric top.
 Rotational symmetry number  1.
 Warning -- assumption of classical behavior for rotation
           may cause significant error
 Rotational temperatures (Kelvin)      0.07766     0.02542     0.02120
 Rotational constants (GHZ):           1.61826     0.52960     0.44182
 Zero-point vibrational energy     556823.1 (Joules/Mol)
                                  133.08392 (Kcal/Mol)
 Warning -- explicit consideration of  18 degrees of freedom as
           vibrations may cause significant error
 Vibrational temperatures:     26.23    41.94    60.76    77.52    97.68
          (Kelvin)            244.80   294.88   315.19   426.87   451.61
                              557.06   631.32   660.44   681.41   748.35
                              771.33   879.32   888.49   940.14  1038.02
                             1080.82  1161.33  1235.64  1308.70  1339.39
                             1364.89  1401.70  1440.40  1461.09  1472.87
                             1504.51  1536.30  1550.39  1584.27  1626.69
                             1713.68  1738.05  1822.90  1834.14  1856.75
                             1947.39  1964.00  2014.40  2051.23  2076.05
                             2129.24  2159.13  2164.02  2180.58  2181.65
                             2195.35  2219.52  2240.57  2372.00  2398.59
                             2557.70  4377.41  4407.66  4411.21  4450.28
                             4500.91  4509.38  4511.65  4525.12  4560.08
                             4570.20  4587.26  4600.89  5209.39

 Zero-point correction=                           0.212083 (Hartree/Particle)
 Thermal correction to Energy=                    0.224550
 Thermal correction to Enthalpy=                  0.225494
 Thermal correction to Gibbs Free Energy=         0.170196
 Sum of electronic and zero-point Energies=           -518.682150
 Sum of electronic and thermal Energies=              -518.669683
 Sum of electronic and thermal Enthalpies=            -518.668739
 Sum of electronic and thermal Free Energies=         -518.724036

                     E (Thermal)             CV                S
                      KCal/Mol        Cal/Mol-Kelvin    Cal/Mol-Kelvin
 Total                  140.907             44.717            116.383
 Electronic               0.000              0.000              0.000
 Translational            0.889              2.981             41.176
 Rotational               0.889              2.981             31.118
 Vibrational            139.130             38.756             44.089
 Vibration     1          0.593              1.986              6.818
 Vibration     2          0.593              1.984              5.887
 Vibration     3          0.595              1.980              5.152
 Vibration     4          0.596              1.976              4.670
 Vibration     5          0.598              1.970              4.214
 Vibration     6          0.625              1.879              2.434
 Vibration     7          0.640              1.833              2.088
 Vibration     8          0.647              1.812              1.967
 Vibration     9          0.690              1.680              1.435
 Vibration    10          0.702              1.647              1.342
 Vibration    11          0.756              1.498              1.011
 Vibration    12          0.799              1.386              0.830
 Vibration    13          0.817              1.341              0.769
 Vibration    14          0.830              1.309              0.728
 Vibration    15          0.875              1.205              0.610
 Vibration    16          0.891              1.170              0.574
 Vibration    17          0.970              1.008              0.431
 Vibration    18          0.977              0.995              0.420

 Normal termination of Gaussian 09 at Fri Feb 16 18:18:10 2018.
