 Gaussian 09, Revision C.01,
 Gaussian 09:  AM64L-G09RevC.01 23-Sep-2011

 ----------------------------------------------------------------------
 #HF/6-31G* Geom=AllCheck Guess=Read Pop=(MK,ReadRadii) Integral=(Grid=
 UltraFine) iop(6/33=2)
 ----------------------------------------------------------------------

 Structure from the checkpoint file:  frag8-conf1.chk
 ----------------------------
 Optimization for frag8-conf1
 ----------------------------
 Charge =  0 Multiplicity = 1

                         Standard orientation:
 ---------------------------------------------------------------------
 Center     Atomic      Atomic             Coordinates (Angstroms)
 Number     Number       Type             X           Y           Z
 ---------------------------------------------------------------------
      1          6           0        2.697350   -1.393834    0.427845
      2          6           0        3.037608   -0.044075    0.417144
      3          6           0        1.416620   -1.797818    0.039613
      4          6           0        0.831453    0.507132   -0.370390
      5          6           0        2.106536    0.927663    0.015287
      6          6           0        0.473270   -0.849702   -0.361736
      7          6           0       -2.717778    0.260715    0.005873
      8          6           0        2.483431    2.391494   -0.003803
      9          6           0       -3.679190    0.582036    1.141476
     10          6           0       -0.926875   -1.265823   -0.773762
     11          7           0       -1.961557   -0.866973    0.178771
     12          8           0       -2.643880    0.965042   -0.995348
     13          1           0        3.429108   -2.135567    0.737930
     14          1           0        4.036668    0.263725    0.718994
     15          1           0        1.154640   -2.853997    0.045177
     16          1           0        0.094656    1.240360   -0.690914
     17          1           0        3.331688    2.577308   -0.674493
     18          1           0        1.649025    3.013853   -0.341081
     19          1           0        2.780923    2.741101    0.992885
     20          1           0       -3.392781    1.540230    1.587186
     21          1           0       -4.683417    0.703566    0.725354
     22          1           0       -3.708344   -0.179967    1.926780
     23          1           0       -1.204638   -0.798805   -1.722004
     24          1           0       -0.974027   -2.353129   -0.903147
     25          1           0       -1.966102   -1.316936    1.083447
 ---------------------------------------------------------------------

 SCF Done:  E(RHF) =  -515.588214984     A.U. after   14 cycles

 The electronic state is 1-A.
 Alpha  occ. eigenvalues --  -20.51957 -15.58914 -11.35383 -11.26774 -11.24030
 Alpha  occ. eigenvalues --  -11.23889 -11.23818 -11.23441 -11.23087 -11.22877
 Alpha  occ. eigenvalues --  -11.22419 -11.22284  -1.37109  -1.22701  -1.14781
 Alpha  occ. eigenvalues --   -1.05137  -1.02649  -0.99803  -0.93160  -0.91752
 Alpha  occ. eigenvalues --   -0.81212  -0.79364  -0.77528  -0.69238  -0.67788
 Alpha  occ. eigenvalues --   -0.64829  -0.63670  -0.62302  -0.60768  -0.57781
 Alpha  occ. eigenvalues --   -0.57457  -0.57036  -0.56164  -0.55523  -0.54768
 Alpha  occ. eigenvalues --   -0.52460  -0.51114  -0.48437  -0.47821  -0.47695
 Alpha  occ. eigenvalues --   -0.41715  -0.38729  -0.32400  -0.31880
 Alpha virt. eigenvalues --    0.13724   0.14812   0.19775   0.21825   0.24423
 Alpha virt. eigenvalues --    0.26168   0.27097   0.28627   0.29558   0.30620
 Alpha virt. eigenvalues --    0.31389   0.32009   0.32764   0.33657   0.34813

 Mulliken atomic charges:
              1
     1  C   -0.189964
     2  C   -0.224729
     3  C   -0.242187
     4  C   -0.261342
     5  C    0.050458
     6  C    0.033559
     7  C    0.763557
     8  C   -0.512131
     9  C   -0.575696
    10  C   -0.165372
    11  N   -0.789414
    12  O   -0.633088
    13  H    0.200076
    14  H    0.196129
    15  H    0.193316
    16  H    0.237645
    17  H    0.176794
    18  H    0.180789
    19  H    0.173988
    20  H    0.205760
    21  H    0.210227
    22  H    0.167579
    23  H    0.237334
    24  H    0.184329
    25  H    0.382381
 Sum of Mulliken atomic charges =   0.00000

 Dipole moment (field-independent basis, Debye):
    X=              0.4952    Y=             -1.9327    Z=              3.0248  Tot=              3.6235
 Quadrupole moment (field-independent basis, Debye-Ang):
   XX=            -68.0489   YY=            -67.9346   ZZ=            -74.4423
   XY=              5.4345   XZ=             -7.1145   YZ=              1.6286

 Normal termination of Gaussian 09 at Sat Feb 17 20:56:32 2018.
