 Gaussian 09, Revision C.01,
 Gaussian 09:  AM64L-G09RevC.01 23-Sep-2011

 ---------------------------------------------------------
 #B3LYP/6-31G* Integral=(Grid=UltraFine) freq Opt pop=none
 ---------------------------------------------------------

 99/9=1/99;
 -----------------------------
 Optimization for frag36-conf1
 -----------------------------
 Charge =  0 Multiplicity = 1

 SCF Done:  E(RB3LYP) =  -571.816431881     A.U. after   15 cycles
 SCF Done:  E(RB3LYP) =  -571.818839484     A.U. after   13 cycles
 SCF Done:  E(RB3LYP) =  -571.819234837     A.U. after   12 cycles
 SCF Done:  E(RB3LYP) =  -571.819470257     A.U. after   13 cycles
 SCF Done:  E(RB3LYP) =  -571.819504651     A.U. after   11 cycles
 SCF Done:  E(RB3LYP) =  -571.819567876     A.U. after   11 cycles
 SCF Done:  E(RB3LYP) =  -571.819591122     A.U. after   11 cycles
 SCF Done:  E(RB3LYP) =  -571.819605751     A.U. after   11 cycles
 SCF Done:  E(RB3LYP) =  -571.819636988     A.U. after   11 cycles
 SCF Done:  E(RB3LYP) =  -571.819671691     A.U. after   11 cycles
 SCF Done:  E(RB3LYP) =  -571.819713302     A.U. after   11 cycles
 SCF Done:  E(RB3LYP) =  -571.819759773     A.U. after   12 cycles
 SCF Done:  E(RB3LYP) =  -571.819771940     A.U. after   12 cycles
 SCF Done:  E(RB3LYP) =  -571.819774422     A.U. after   10 cycles
 SCF Done:  E(RB3LYP) =  -571.819775936     A.U. after    9 cycles
 SCF Done:  E(RB3LYP) =  -571.819776107     A.U. after    8 cycles
 SCF Done:  E(RB3LYP) =  -571.819776168     A.U. after    7 cycles
 SCF Done:  E(RB3LYP) =  -571.819776192     A.U. after    7 cycles
 Optimization completed.
    -- Stationary point found.
 Normal termination of Gaussian 09 at Fri Feb 16 20:55:55 2018.

 --------------------------------------------------------------------
 #N Geom=AllCheck Guess=TCheck SCRF=Check GenChk RB3LYP/6-31G(d) Freq
 --------------------------------------------------------------------

 Structure from the checkpoint file:  frag36-conf1.chk
 -----------------------------
 Optimization for frag36-conf1
 -----------------------------
 Charge =  0 Multiplicity = 1

                         Standard orientation:
 ---------------------------------------------------------------------
 Center     Atomic      Atomic             Coordinates (Angstroms)
 Number     Number       Type             X           Y           Z
 ---------------------------------------------------------------------
      1          6           0       -3.948757   -0.642055    0.258340
      2          6           0       -2.303094    1.183374    0.300809
      3          6           0       -1.613204   -1.033786   -0.416598
      4          6           0       -1.003726    1.641163    0.094838
      5          6           0       -0.321409   -0.563317   -0.619034
      6          6           0       -2.614375   -0.161085    0.047209
      7          6           0       -0.000798    0.779569   -0.363049
      8          6           0        3.128375   -0.393494    0.064646
      9          6           0        4.056929   -0.876496    1.167708
     10          6           0        1.417953    1.276348   -0.577338
     11          7           0       -5.031202   -1.031687    0.432006
     12          7           0        2.384414    0.717471    0.362973
     13          8           0        3.061355   -0.958307   -1.021639
     14          1           0       -3.076636    1.856829    0.655716
     15          1           0       -1.859390   -2.071318   -0.618906
     16          1           0       -0.769443    2.685034    0.290284
     17          1           0        0.453548   -1.231850   -0.982709
     18          1           0        3.762138   -1.889381    1.460034
     19          1           0        5.073110   -0.936153    0.767184
     20          1           0        4.060957   -0.236834    2.055725
     21          1           0        1.769409    0.993224   -1.573131
     22          1           0        1.450181    2.368575   -0.502006
     23          1           0        2.385440    1.066511    1.310880
 ---------------------------------------------------------------------

 SCF Done:  E(RB3LYP) =  -571.819776192     A.U. after    1 cycles

 Isotropic polarizability for W=    0.000000      115.85 Bohr**3.
 End of Minotr Frequency-dependent properties file   721 does not exist.

                     1                      2                      3
                     A                      A                      A
 Frequencies --    30.4324                46.0041                55.1026
 Red. masses --     3.3515                 1.5994                 3.0665
 Frc consts  --     0.0018                 0.0020                 0.0055
 IR Inten    --     1.2349                 2.2705                 8.5477

                     4                      5                      6
                     A                      A                      A
 Frequencies --    61.8899               105.8685               142.6604
 Red. masses --     3.4271                 4.6625                 8.3243
 Frc consts  --     0.0077                 0.0308                 0.0998
 IR Inten    --     5.1277                 3.7312                 8.1037

                     7                      8                      9
                     A                      A                      A
 Frequencies --   209.2157               235.1160               296.1689
 Red. masses --     6.5584                 5.4389                 5.4138
 Frc consts  --     0.1691                 0.1771                 0.2798
 IR Inten    --     3.9595                 3.3332                 0.3909

                    10                     11                     12
                     A                      A                      A
 Frequencies --   342.4737               413.7739               423.9182
 Red. masses --     2.1409                 3.0449                 4.2665
 Frc consts  --     0.1479                 0.3072                 0.4517
 IR Inten    --     3.6951                 0.2576                 0.3166

                    13                     14                     15
                     A                      A                      A
 Frequencies --   440.0138               441.8875               525.4772
 Red. masses --     1.2497                 3.6939                 5.7936
 Frc consts  --     0.1426                 0.4250                 0.9426
 IR Inten    --   111.4017                10.4667                 7.6306

                    16                     17                     18
                     A                      A                      A
 Frequencies --   559.5617               581.2704               617.2272
 Red. masses --     7.3296                 3.6276                 2.8850
 Frc consts  --     1.3522                 0.7221                 0.6476
 IR Inten    --     0.3087                22.4312                 2.0111

                    19                     20                     21
                     A                      A                      A
 Frequencies --   643.1690               660.9960               707.2996
 Red. masses --     2.8325                 6.3624                 4.2372
 Frc consts  --     0.6904                 1.6378                 1.2489
 IR Inten    --     3.4248                 0.5875                 4.3507

                    22                     23                     24
                     A                      A                      A
 Frequencies --   765.0520               834.7383               856.5322
 Red. masses --     4.3488                 3.1638                 2.6877
 Frc consts  --     1.4997                 1.2988                 1.1618
 IR Inten    --     3.4432                13.7317                 4.5673

                    25                     26                     27
                     A                      A                      A
 Frequencies --   861.0965               877.1615               969.3910
 Red. masses --     1.5116                 1.5914                 1.3316
 Frc consts  --     0.6604                 0.7214                 0.7373
 IR Inten    --     5.7908                21.1468                 0.1107

                    28                     29                     30
                     A                      A                      A
 Frequencies --   997.3232              1005.5305              1037.0716
 Red. masses --     1.4570                 1.4727                 2.6796
 Frc consts  --     0.8539                 0.8773                 1.6980
 IR Inten    --     1.6972                 3.6317                 1.3249

                    31                     32                     33
                     A                      A                      A
 Frequencies --  1044.1541              1068.5256              1103.3397
 Red. masses --     2.7832                 1.7044                 3.2565
 Frc consts  --     1.7878                 1.1466                 2.3357
 IR Inten    --     8.4514                 7.3901                11.1460

                    34                     35                     36
                     A                      A                      A
 Frequencies --  1149.0480              1212.0676              1229.0825
 Red. masses --     1.3663                 1.6621                 2.7484
 Frc consts  --     1.0629                 1.4387                 2.4462
 IR Inten    --     5.2515                 0.3174                 1.5292

                    37                     38                     39
                     A                      A                      A
 Frequencies --  1234.7040              1266.8174              1292.6268
 Red. masses --     2.1228                 1.5187                 1.8451
 Frc consts  --     1.9067                 1.4360                 1.8164
 IR Inten    --     1.5456                32.1263               143.5253

                    40                     41                     42
                     A                      A                      A
 Frequencies --  1341.3749              1365.8751              1402.4223
 Red. masses --     2.1741                 1.7323                 1.3499
 Frc consts  --     2.3048                 1.9041                 1.5642
 IR Inten    --     2.0537                 6.2808                15.6463

                    43                     44                     45
                     A                      A                      A
 Frequencies --  1427.0083              1459.8680              1498.6348
 Red. masses --     1.2577                 2.5520                 1.0974
 Frc consts  --     1.5089                 3.2044                 1.4521
 IR Inten    --    22.9687                15.9151                15.0742

                    46                     47                     48
                     A                      A                      A
 Frequencies --  1500.7610              1515.2137              1551.5020
 Red. masses --     1.0528                 1.0700                 2.0948
 Frc consts  --     1.3971                 1.4474                 2.9710
 IR Inten    --     3.4331                19.1182                78.6720

                    49                     50                     51
                     A                      A                      A
 Frequencies --  1558.3064              1616.7279              1667.9614
 Red. masses --     2.0972                 6.1095                 5.5695
 Frc consts  --     3.0005                 9.4087                 9.1294
 IR Inten    --   142.5099                 0.3431                12.5714

                    52                     53                     54
                     A                      A                      A
 Frequencies --  1776.7606              2347.8611              3065.6125
 Red. masses --     8.9887                12.6817                 1.0357
 Frc consts  --    16.7188                41.1881                 5.7346
 IR Inten    --   198.3725                36.2098                 7.7649

                    55                     56                     57
                     A                      A                      A
 Frequencies --  3073.0557              3132.6174              3139.2064
 Red. masses --     1.0636                 1.1013                 1.1029
 Frc consts  --     5.9178                 6.3675                 6.4034
 IR Inten    --    29.7152                 3.0458                13.2105

                    58                     59                     60
                     A                      A                      A
 Frequencies --  3145.8098              3184.3907              3207.6158
 Red. masses --     1.1022                 1.0891                 1.0890
 Frc consts  --     6.4265                 6.5071                 6.6012
 IR Inten    --     9.8812                11.8228                 0.5104

                    61                     62                     63
                     A                      A                      A
 Frequencies --  3218.2191              3221.7470              3625.7826
 Red. masses --     1.0936                 1.0955                 1.0778
 Frc consts  --     6.6733                 6.6993                 8.3481
 IR Inten    --     6.4376                 1.9018                16.8383

 - Thermochemistry -
 -------------------
 Temperature   298.150 Kelvin.  Pressure   1.00000 Atm.
 Atom     1 has atomic number  6 and mass  12.00000

 Molecular mass:   174.07931 amu.
 Principal axes and moments of inertia in atomic units:
                           1         2         3
     Eigenvalues --   855.347685164.757315556.13446
           X            0.99990  -0.00763   0.01213
           Y            0.00773   0.99994  -0.00809
           Z           -0.01207   0.00818   0.99989
 This molecule is an asymmetric top.
 Rotational symmetry number  1.
 Warning -- assumption of classical behavior for rotation
           may cause significant error
 Rotational temperatures (Kelvin)      0.10126     0.01677     0.01559
 Rotational constants (GHZ):           2.10995     0.34943     0.32482
 Zero-point vibrational energy     480827.8 (Joules/Mol)
                                  114.92059 (Kcal/Mol)
 Warning -- explicit consideration of  18 degrees of freedom as
           vibrations may cause significant error
 Vibrational temperatures:     43.79    66.19    79.28    89.05   152.32
          (Kelvin)            205.26   301.01   338.28   426.12   492.74
                              595.33   609.92   633.08   635.78   756.04
                              805.08   836.32   888.05   925.38   951.02
                             1017.65  1100.74  1201.00  1232.36  1238.92
                             1262.04  1394.74  1434.92  1446.73  1492.11
                             1502.30  1537.37  1587.46  1653.22  1743.89
                             1768.37  1776.46  1822.67  1859.80  1929.94
                             1965.19  2017.77  2053.14  2100.42  2156.20
                             2159.26  2180.05  2232.26  2242.05  2326.11
                             2399.82  2556.36  3378.04  4410.73  4421.44
                             4507.13  4516.61  4526.11  4581.62  4615.04
                             4630.29  4635.37  5216.69

 Zero-point correction=                           0.183138 (Hartree/Particle)
 Thermal correction to Energy=                    0.195498
 Thermal correction to Enthalpy=                  0.196442
 Thermal correction to Gibbs Free Energy=         0.142393
 Sum of electronic and zero-point Energies=           -571.636639
 Sum of electronic and thermal Energies=              -571.624278
 Sum of electronic and thermal Enthalpies=            -571.623334
 Sum of electronic and thermal Free Energies=         -571.677383

                     E (Thermal)             CV                S
                      KCal/Mol        Cal/Mol-Kelvin    Cal/Mol-Kelvin
 Total                  122.677             44.775            113.756
 Electronic               0.000              0.000              0.000
 Translational            0.889              2.981             41.370
 Rotational               0.889              2.981             31.574
 Vibrational            120.899             38.813             40.812
 Vibration     1          0.594              1.984              5.801
 Vibration     2          0.595              1.979              4.982
 Vibration     3          0.596              1.976              4.625
 Vibration     4          0.597              1.973              4.396
 Vibration     5          0.605              1.945              3.343
 Vibration     6          0.616              1.911              2.768
 Vibration     7          0.642              1.827              2.051
 Vibration     8          0.655              1.787              1.840
 Vibration     9          0.690              1.681              1.438
 Vibration    10          0.722              1.591              1.201
 Vibration    11          0.777              1.440              0.913
 Vibration    12          0.786              1.418              0.879
 Vibration    13          0.800              1.383              0.827
 Vibration    14          0.802              1.379              0.821
 Vibration    15          0.880              1.194              0.597
 Vibration    16          0.915              1.119              0.525
 Vibration    17          0.938              1.072              0.483
 Vibration    18          0.977              0.995              0.421

 Normal termination of Gaussian 09 at Fri Feb 16 21:16:08 2018.
