 Gaussian 09, Revision C.01,
 Gaussian 09:  AM64L-G09RevC.01 23-Sep-2011

 ----------------------------------------------------------------------
 #HF/6-31G* Geom=AllCheck Guess=Read Pop=(MK,ReadRadii) Integral=(Grid=
 UltraFine) iop(6/33=2)
 ----------------------------------------------------------------------

 Structure from the checkpoint file:  frag36-conf1.chk
 -----------------------------
 Optimization for frag36-conf1
 -----------------------------
 Charge =  0 Multiplicity = 1

                         Standard orientation:
 ---------------------------------------------------------------------
 Center     Atomic      Atomic             Coordinates (Angstroms)
 Number     Number       Type             X           Y           Z
 ---------------------------------------------------------------------
      1          6           0       -3.948757   -0.642055    0.258340
      2          6           0       -2.303094    1.183374    0.300809
      3          6           0       -1.613204   -1.033786   -0.416598
      4          6           0       -1.003726    1.641163    0.094838
      5          6           0       -0.321409   -0.563317   -0.619034
      6          6           0       -2.614375   -0.161085    0.047209
      7          6           0       -0.000798    0.779569   -0.363049
      8          6           0        3.128375   -0.393494    0.064646
      9          6           0        4.056929   -0.876496    1.167708
     10          6           0        1.417953    1.276348   -0.577338
     11          7           0       -5.031202   -1.031687    0.432006
     12          7           0        2.384414    0.717471    0.362973
     13          8           0        3.061355   -0.958307   -1.021639
     14          1           0       -3.076636    1.856829    0.655716
     15          1           0       -1.859390   -2.071318   -0.618906
     16          1           0       -0.769443    2.685034    0.290284
     17          1           0        0.453548   -1.231850   -0.982709
     18          1           0        3.762138   -1.889381    1.460034
     19          1           0        5.073110   -0.936153    0.767184
     20          1           0        4.060957   -0.236834    2.055725
     21          1           0        1.769409    0.993224   -1.573131
     22          1           0        1.450181    2.368575   -0.502006
     23          1           0        2.385440    1.066511    1.310880
 ---------------------------------------------------------------------

 SCF Done:  E(RHF) =  -568.284924958     A.U. after   15 cycles

 The electronic state is 1-A.
 Alpha  occ. eigenvalues --  -20.53433 -15.60576 -15.57809 -11.36821 -11.28874
 Alpha  occ. eigenvalues --  -11.28845 -11.28024 -11.27208 -11.27079 -11.26936
 Alpha  occ. eigenvalues --  -11.26081 -11.25388 -11.24994  -1.38636  -1.24394
 Alpha  occ. eigenvalues --   -1.21691  -1.17562  -1.07650  -1.04034  -1.01952
 Alpha  occ. eigenvalues --   -0.95294  -0.85643  -0.85449  -0.79997  -0.75740
 Alpha  occ. eigenvalues --   -0.70811  -0.67978  -0.66624  -0.65460  -0.63479
 Alpha  occ. eigenvalues --   -0.61333  -0.60795  -0.58958  -0.57408  -0.56584
 Alpha  occ. eigenvalues --   -0.55756  -0.54187  -0.53857  -0.51673  -0.50989
 Alpha  occ. eigenvalues --   -0.47090  -0.45839  -0.43144  -0.40417  -0.35928
 Alpha  occ. eigenvalues --   -0.34458
 Alpha virt. eigenvalues --    0.08185   0.11860   0.18115   0.20326   0.21065
 Alpha virt. eigenvalues --    0.22841   0.24900   0.25503   0.26883   0.28286
 Alpha virt. eigenvalues --    0.30319   0.30987   0.31332   0.32628   0.34544

 Mulliken atomic charges:
              1
     1  C    0.272095
     2  C   -0.166722
     3  C   -0.169269
     4  C   -0.239236
     5  C   -0.233953
     6  C   -0.011614
     7  C    0.041419
     8  C    0.763601
     9  C   -0.576288
    10  C   -0.166894
    11  N   -0.466448
    12  N   -0.792977
    13  O   -0.630126
    14  H    0.240072
    15  H    0.242793
    16  H    0.211796
    17  H    0.264223
    18  H    0.210385
    19  H    0.214582
    20  H    0.170161
    21  H    0.243011
    22  H    0.192187
    23  H    0.387200
 Sum of Mulliken atomic charges =   0.00000

 Dipole moment (field-independent basis, Debye):
    X=              4.6704    Y=              3.4925    Z=              2.5468  Tot=              6.3636
 Quadrupole moment (field-independent basis, Debye-Ang):
   XX=           -102.6046   YY=            -70.8710   ZZ=            -77.2678
   XY=             -3.9598   XZ=             12.8488   YZ=              0.3406

 Normal termination of Gaussian 09 at Sat Feb 17 21:03:18 2018.
