 Gaussian 09, Revision C.01,
 Gaussian 09:  AM64L-G09RevC.01 23-Sep-2011

 ---------------------------------------------------------
 #B3LYP/6-31G* Integral=(Grid=UltraFine) freq Opt pop=none
 ---------------------------------------------------------

 99/9=1/99;
 ----------------------------
 Optimization for frag9-conf2
 ----------------------------
 Charge =  0 Multiplicity = 1

 SCF Done:  E(RB3LYP) =  -479.573227289     A.U. after   15 cycles
 SCF Done:  E(RB3LYP) =  -479.574328787     A.U. after   12 cycles
 SCF Done:  E(RB3LYP) =  -479.574416427     A.U. after   10 cycles
 SCF Done:  E(RB3LYP) =  -479.574420387     A.U. after   10 cycles
 SCF Done:  E(RB3LYP) =  -479.574447754     A.U. after   10 cycles
 SCF Done:  E(RB3LYP) =  -479.574484177     A.U. after   12 cycles
 SCF Done:  E(RB3LYP) =  -479.574586166     A.U. after   15 cycles
 SCF Done:  E(RB3LYP) =  -479.574642892     A.U. after   11 cycles
 SCF Done:  E(RB3LYP) =  -479.574725064     A.U. after   13 cycles
 SCF Done:  E(RB3LYP) =  -479.574770775     A.U. after   13 cycles
 SCF Done:  E(RB3LYP) =  -479.548996468     A.U. after   16 cycles
 SCF Done:  E(RB3LYP) =  -479.576082113     A.U. after   15 cycles
 SCF Done:  E(RB3LYP) =  -479.576090745     A.U. after   10 cycles
 SCF Done:  E(RB3LYP) =  -479.576058635     A.U. after   14 cycles
 SCF Done:  E(RB3LYP) =  -479.576122634     A.U. after   12 cycles
 SCF Done:  E(RB3LYP) =  -479.576128773     A.U. after   10 cycles
 SCF Done:  E(RB3LYP) =  -479.576130858     A.U. after   10 cycles
 SCF Done:  E(RB3LYP) =  -479.576131165     A.U. after    8 cycles
 SCF Done:  E(RB3LYP) =  -479.576131181     A.U. after    8 cycles
 Optimization completed.
    -- Stationary point found.
 Normal termination of Gaussian 09 at Fri Feb 16 18:50:00 2018.

 --------------------------------------------------------------------
 #N Geom=AllCheck Guess=TCheck SCRF=Check GenChk RB3LYP/6-31G(d) Freq
 --------------------------------------------------------------------

 Structure from the checkpoint file:  frag9-conf2.chk
 ----------------------------
 Optimization for frag9-conf2
 ----------------------------
 Charge =  0 Multiplicity = 1

                         Standard orientation:
 ---------------------------------------------------------------------
 Center     Atomic      Atomic             Coordinates (Angstroms)
 Number     Number       Type             X           Y           Z
 ---------------------------------------------------------------------
      1          6           0        3.225176   -0.736019    0.413340
      2          6           0        2.144000   -1.526474    0.011830
      3          6           0        3.098997    0.652753    0.425809
      4          6           0        0.943997   -0.931429   -0.373324
      5          6           0        1.894561    1.247504    0.040885
      6          6           0        0.807262    0.464967   -0.360574
      7          6           0       -2.516467   -0.123650    0.005289
      8          6           0       -3.519562   -0.293338    1.137352
      9          6           0       -0.507512    1.104953   -0.767198
     10          7           0       -1.592815    0.871013    0.183340
     11          8           0       -2.550093   -0.828021   -0.997942
     12          1           0        4.160989   -1.201867    0.710740
     13          1           0        2.239483   -2.609110   -0.006371
     14          1           0        3.935630    1.274745    0.733520
     15          1           0        0.103148   -1.541992   -0.692115
     16          1           0        1.801567    2.331947    0.048479
     17          1           0       -4.529078   -0.258349    0.717828
     18          1           0       -3.385833   -1.284466    1.583023
     19          1           0       -3.433370    0.463654    1.923286
     20          1           0       -0.378829    2.186503   -0.888936
     21          1           0       -0.856488    0.695609   -1.718585
     22          1           0       -1.529488    1.314798    1.088846
 ---------------------------------------------------------------------

 SCF Done:  E(RB3LYP) =  -479.576131181     A.U. after    1 cycles

 Isotropic polarizability for W=    0.000000       97.36 Bohr**3.
 End of Minotr Frequency-dependent properties file   721 does not exist.

                     1                      2                      3
                     A                      A                      A
 Frequencies --    31.3567                47.4249                56.0992
 Red. masses --     3.3713                 1.5497                 4.2967
 Frc consts  --     0.0020                 0.0021                 0.0080
 IR Inten    --     1.5031                 1.3531                12.2057

                     4                      5                      6
                     A                      A                      A
 Frequencies --    71.8182               178.9828               227.2886
 Red. masses --     2.0699                 4.3750                 5.3288
 Frc consts  --     0.0063                 0.0826                 0.1622
 IR Inten    --     1.0829                 2.7051                 5.5164

                     7                      8                      9
                     A                      A                      A
 Frequencies --   302.0104               343.8588               418.1534
 Red. masses --     4.1660                 2.0552                 3.0099
 Frc consts  --     0.2239                 0.1432                 0.3101
 IR Inten    --     0.1462                 2.4447                 0.1690

                    10                     11                     12
                     A                      A                      A
 Frequencies --   441.5847               460.3268               503.4600
 Red. masses --     2.7215                 1.2865                 3.9071
 Frc consts  --     0.3127                 0.1606                 0.5835
 IR Inten    --     8.3799               102.3830                15.0759

                    13                     14                     15
                     A                      A                      A
 Frequencies --   598.7245               615.4967               635.7301
 Red. masses --     3.5749                 3.5440                 5.9366
 Frc consts  --     0.7550                 0.7910                 1.4136
 IR Inten    --    17.9701                 0.5188                 0.3657

                    16                     17                     18
                     A                      A                      A
 Frequencies --   647.9799               719.5486               771.0938
 Red. masses --     2.7646                 1.8240                 1.9983
 Frc consts  --     0.6839                 0.5564                 0.7000
 IR Inten    --     3.0773                28.9162                21.3234

                    19                     20                     21
                     A                      A                      A
 Frequencies --   829.0228               860.3740               868.2344
 Red. masses --     3.7747                 2.6660                 1.2473
 Frc consts  --     1.5285                 1.1627                 0.5540
 IR Inten    --     5.4025                 3.6947                 0.0591

                    22                     23                     24
                     A                      A                      A
 Frequencies --   932.6387               975.9352               998.6590
 Red. masses --     1.4099                 1.3315                 1.5186
 Frc consts  --     0.7225                 0.7472                 0.8923
 IR Inten    --     2.6069                 0.2265                 2.1306

                    25                     26                     27
                     A                      A                      A
 Frequencies --  1004.6931              1017.9484              1033.8388
 Red. masses --     1.3714                 5.9727                 2.5605
 Frc consts  --     0.8156                 3.6465                 1.6124
 IR Inten    --     2.4911                 0.0586                 3.4148

                    28                     29                     30
                     A                      A                      A
 Frequencies --  1058.7041              1067.4894              1101.0845
 Red. masses --     2.2668                 1.6990                 3.2006
 Frc consts  --     1.4970                 1.1407                 2.2862
 IR Inten    --     3.8896                 7.3754                12.9470

                    31                     32                     33
                     A                      A                      A
 Frequencies --  1119.3243              1192.9632              1215.0454
 Red. masses --     1.5605                 1.1040                 1.1461
 Frc consts  --     1.1520                 0.9257                 0.9969
 IR Inten    --     6.7285                 0.0972                 0.9820

                    34                     35                     36
                     A                      A                      A
 Frequencies --  1230.6511              1266.6723              1290.5085
 Red. masses --     2.9217                 1.4571                 1.7841
 Frc consts  --     2.6071                 1.3774                 1.7506
 IR Inten    --     2.7315                21.6103               140.3271

                    37                     38                     39
                     A                      A                      A
 Frequencies --  1362.3569              1371.9681              1401.3938
 Red. masses --     3.8765                 1.2914                 1.3266
 Frc consts  --     4.2390                 1.4322                 1.5350
 IR Inten    --     7.0368                 6.2345                12.1276

                    40                     41                     42
                     A                      A                      A
 Frequencies --  1426.0127              1500.2296              1502.2184
 Red. masses --     1.2626                 1.1254                 1.3418
 Frc consts  --     1.5127                 1.4923                 1.7840
 IR Inten    --    22.3755                20.5759                 8.8545

                    43                     44                     45
                     A                      A                      A
 Frequencies --  1504.7079              1515.7790              1545.5538
 Red. masses --     1.4706                 1.0682                 2.1707
 Frc consts  --     1.9618                 1.4460                 3.0550
 IR Inten    --     7.9045                15.8902                 8.1017

                    46                     47                     48
                     A                      A                      A
 Frequencies --  1557.4328              1645.4455              1665.3601
 Red. masses --     1.8862                 5.4768                 5.4740
 Frc consts  --     2.6957                 8.7366                 8.9448
 IR Inten    --   203.6270                 1.0951                 3.0423

                    49                     50                     51
                     A                      A                      A
 Frequencies --  1778.0445              3063.7233              3066.3388
 Red. masses --     8.9703                 1.0358                 1.0661
 Frc consts  --    16.7086                 5.7282                 5.9059
 IR Inten    --   209.7939                 8.5823                35.2541

                    52                     53                     54
                     A                      A                      A
 Frequencies --  3134.0054              3135.9092              3145.4731
 Red. masses --     1.0986                 1.1026                 1.1020
 Frc consts  --     6.3576                 6.3883                 6.4238
 IR Inten    --     0.8509                15.9202                10.9010

                    55                     56                     57
                     A                      A                      A
 Frequencies --  3169.3129              3181.8446              3191.7779
 Red. masses --     1.0871                 1.0864                 1.0907
 Frc consts  --     6.4334                 6.4805                 6.5469
 IR Inten    --    11.2862                 0.8631                23.9389

                    58                     59                     60
                     A                      A                      A
 Frequencies --  3201.6218              3209.0421              3621.1109
 Red. masses --     1.0938                 1.0976                 1.0775
 Frc consts  --     6.6059                 6.6598                 8.3244
 IR Inten    --    22.2849                17.0289                14.7416

 - Thermochemistry -
 -------------------
 Temperature   298.150 Kelvin.  Pressure   1.00000 Atm.
 Atom     1 has atomic number  6 and mass  12.00000

 Molecular mass:   149.08406 amu.
 Principal axes and moments of inertia in atomic units:
                           1         2         3
     Eigenvalues --   696.624713115.516213387.08761
           X            0.99992  -0.00220  -0.01215
           Y            0.00193   0.99975  -0.02226
           Z            0.01219   0.02223   0.99968
 This molecule is an asymmetric top.
 Rotational symmetry number  1.
 Warning -- assumption of classical behavior for rotation
           may cause significant error
 Rotational temperatures (Kelvin)      0.12433     0.02780     0.02557
 Rotational constants (GHZ):           2.59069     0.57928     0.53283
 Zero-point vibrational energy     484675.3 (Joules/Mol)
                                  115.84018 (Kcal/Mol)
 Warning -- explicit consideration of  14 degrees of freedom as
           vibrations may cause significant error
 Vibrational temperatures:     45.12    68.23    80.71   103.33   257.52
          (Kelvin)            327.02   434.53   494.74   601.63   635.34
                              662.31   724.37   861.43   885.56   914.67
                              932.30  1035.27  1109.43  1192.78  1237.88
                             1249.19  1341.86  1404.15  1436.85  1445.53
                             1464.60  1487.46  1523.24  1535.88  1584.21
                             1610.46  1716.41  1748.18  1770.63  1822.46
                             1856.75  1960.13  1973.95  2016.29  2051.71
                             2158.49  2161.35  2164.94  2180.87  2223.70
                             2240.80  2367.43  2396.08  2558.21  4408.01
                             4411.77  4509.13  4511.87  4525.63  4559.93
                             4577.96  4592.25  4606.41  4617.09  5209.96

 Zero-point correction=                           0.184603 (Hartree/Particle)
 Thermal correction to Energy=                    0.195148
 Thermal correction to Enthalpy=                  0.196092
 Thermal correction to Gibbs Free Energy=         0.146461
 Sum of electronic and zero-point Energies=           -479.391528
 Sum of electronic and thermal Energies=              -479.380983
 Sum of electronic and thermal Enthalpies=            -479.380039
 Sum of electronic and thermal Free Energies=         -479.429670

                     E (Thermal)             CV                S
                      KCal/Mol        Cal/Mol-Kelvin    Cal/Mol-Kelvin
 Total                  122.457             38.663            104.457
 Electronic               0.000              0.000              0.000
 Translational            0.889              2.981             40.908
 Rotational               0.889              2.981             30.376
 Vibrational            120.680             32.702             33.173
 Vibration     1          0.594              1.983              5.742
 Vibration     2          0.595              1.979              4.922
 Vibration     3          0.596              1.975              4.590
 Vibration     4          0.598              1.967              4.103
 Vibration     5          0.629              1.868              2.339
 Vibration     6          0.651              1.799              1.900
 Vibration     7          0.694              1.670              1.406
 Vibration     8          0.723              1.588              1.194
 Vibration     9          0.781              1.431              0.898
 Vibration    10          0.801              1.379              0.822
 Vibration    11          0.818              1.338              0.765
 Vibration    12          0.859              1.242              0.650
 Vibration    13          0.957              1.035              0.452
 Vibration    14          0.975              0.999              0.424

 Optimization completed.
    -- Stationary point found.
 Normal termination of Gaussian 09 at Fri Feb 16 19:02:51 2018.
