 Gaussian 09, Revision C.01,
 Gaussian 09:  AM64L-G09RevC.01 23-Sep-2011

 ----------------------------------------------------------------------
 #HF/6-31G* Geom=AllCheck Guess=Read Pop=(MK,ReadRadii) Integral=(Grid=
 UltraFine) iop(6/33=2)
 ----------------------------------------------------------------------

 Structure from the checkpoint file:  frag9-conf2.chk
 ----------------------------
 Optimization for frag9-conf2
 ----------------------------
 Charge =  0 Multiplicity = 1

                         Standard orientation:
 ---------------------------------------------------------------------
 Center     Atomic      Atomic             Coordinates (Angstroms)
 Number     Number       Type             X           Y           Z
 ---------------------------------------------------------------------
      1          6           0        3.225176   -0.736019    0.413340
      2          6           0        2.144000   -1.526474    0.011830
      3          6           0        3.098997    0.652753    0.425809
      4          6           0        0.943997   -0.931429   -0.373324
      5          6           0        1.894561    1.247504    0.040885
      6          6           0        0.807262    0.464967   -0.360574
      7          6           0       -2.516467   -0.123650    0.005289
      8          6           0       -3.519562   -0.293338    1.137352
      9          6           0       -0.507512    1.104953   -0.767198
     10          7           0       -1.592815    0.871013    0.183340
     11          8           0       -2.550093   -0.828021   -0.997942
     12          1           0        4.160989   -1.201867    0.710740
     13          1           0        2.239483   -2.609110   -0.006371
     14          1           0        3.935630    1.274745    0.733520
     15          1           0        0.103148   -1.541992   -0.692115
     16          1           0        1.801567    2.331947    0.048479
     17          1           0       -4.529078   -0.258349    0.717828
     18          1           0       -3.385833   -1.284466    1.583023
     19          1           0       -3.433370    0.463654    1.923286
     20          1           0       -0.378829    2.186503   -0.888936
     21          1           0       -0.856488    0.695609   -1.718585
     22          1           0       -1.529488    1.314798    1.088846
 ---------------------------------------------------------------------

 SCF Done:  E(RHF) =  -476.551166027     A.U. after   13 cycles

 The electronic state is 1-A.
 Alpha  occ. eigenvalues --  -20.52043 -15.59007 -11.35463 -11.26910 -11.24003
 Alpha  occ. eigenvalues --  -11.23944 -11.23637 -11.23529 -11.23461 -11.23358
 Alpha  occ. eigenvalues --  -11.22967  -1.37203  -1.22799  -1.14604  -1.04222
 Alpha  occ. eigenvalues --   -1.00904  -0.99912  -0.92085  -0.82356  -0.80310
 Alpha  occ. eigenvalues --   -0.78281  -0.70036  -0.68206  -0.64872  -0.63987
 Alpha  occ. eigenvalues --   -0.62199  -0.61121  -0.58152  -0.57724  -0.57455
 Alpha  occ. eigenvalues --   -0.55691  -0.53992  -0.51457  -0.49287  -0.48710
 Alpha  occ. eigenvalues --   -0.48329  -0.41819  -0.38852  -0.33160  -0.32439
 Alpha virt. eigenvalues --    0.13763   0.14468   0.19705   0.21749   0.24134
 Alpha virt. eigenvalues --    0.26334   0.28074   0.29565   0.31341   0.31785
 Alpha virt. eigenvalues --    0.32034   0.33543   0.34309   0.34798   0.35633

 Mulliken atomic charges:
              1
     1  C   -0.203580
     2  C   -0.198560
     3  C   -0.196875
     4  C   -0.225277
     5  C   -0.230951
     6  C    0.023699
     7  C    0.763031
     8  C   -0.575842
     9  C   -0.165338
    10  N   -0.789522
    11  O   -0.632503
    12  H    0.201211
    13  H    0.203971
    14  H    0.200792
    15  H    0.241615
    16  H    0.194923
    17  H    0.210554
    18  H    0.206275
    19  H    0.167733
    20  H    0.184304
    21  H    0.237816
    22  H    0.382522
 Sum of Mulliken atomic charges =   0.00000

 Dipole moment (field-independent basis, Debye):
    X=              0.7057    Y=              2.1101    Z=              3.0383  Tot=              3.7659
 Quadrupole moment (field-independent basis, Debye-Ang):
   XX=            -62.6614   YY=            -61.0823   ZZ=            -68.0441
   XY=             -4.3388   XZ=             -6.5042   YZ=             -1.3839

 Normal termination of Gaussian 09 at Sat Feb 17 20:56:24 2018.
