 Gaussian 09, Revision C.01,
 Gaussian 09:  AM64L-G09RevC.01 23-Sep-2011

 ---------------------------------------------------------
 #B3LYP/6-31G* Integral=(Grid=UltraFine) freq Opt pop=none
 ---------------------------------------------------------

 99/9=1/99;
 -----------------------------
 Optimization for frag28-conf1
 -----------------------------
 Charge =  0 Multiplicity = 1

 SCF Done:  E(RB3LYP) =  -955.204147853     A.U. after   15 cycles
 SCF Done:  E(RB3LYP) =  -955.207005978     A.U. after   12 cycles
 SCF Done:  E(RB3LYP) =  -955.207292781     A.U. after   11 cycles
 SCF Done:  E(RB3LYP) =  -955.207352399     A.U. after   11 cycles
 SCF Done:  E(RB3LYP) =  -955.207386864     A.U. after   11 cycles
 SCF Done:  E(RB3LYP) =  -955.207429969     A.U. after   11 cycles
 SCF Done:  E(RB3LYP) =  -955.207464523     A.U. after   11 cycles
 SCF Done:  E(RB3LYP) =  -955.207474495     A.U. after    9 cycles
 SCF Done:  E(RB3LYP) =  -955.207491141     A.U. after   10 cycles
 SCF Done:  E(RB3LYP) =  -955.207506118     A.U. after   10 cycles
 SCF Done:  E(RB3LYP) =  -955.207528585     A.U. after   11 cycles
 SCF Done:  E(RB3LYP) =  -955.207536317     A.U. after   11 cycles
 SCF Done:  E(RB3LYP) =  -955.207538123     A.U. after   10 cycles
 SCF Done:  E(RB3LYP) =  -955.207538775     A.U. after    9 cycles
 SCF Done:  E(RB3LYP) =  -955.207539084     A.U. after    9 cycles
 SCF Done:  E(RB3LYP) =  -955.207539105     A.U. after    7 cycles
 Optimization completed.
    -- Stationary point found.
 Normal termination of Gaussian 09 at Fri Feb 16 20:11:33 2018.

 --------------------------------------------------------------------
 #N Geom=AllCheck Guess=TCheck SCRF=Check GenChk RB3LYP/6-31G(d) Freq
 --------------------------------------------------------------------

 Structure from the checkpoint file:  frag28-conf1.chk
 -----------------------------
 Optimization for frag28-conf1
 -----------------------------
 Charge =  0 Multiplicity = 1

                         Standard orientation:
 ---------------------------------------------------------------------
 Center     Atomic      Atomic             Coordinates (Angstroms)
 Number     Number       Type             X           Y           Z
 ---------------------------------------------------------------------
      1          6           0        2.615677   -0.087013   -0.637023
      2          6           0        2.684948   -1.480156   -0.653563
      3          6           0        0.712103   -1.685161    0.472016
      4          6           0        0.524218   -0.297188    0.570539
      5          6           0        1.514249    0.494795   -0.017154
      6          6           0       -2.672434   -0.208804   -0.132733
      7          6           0       -3.637492    0.332993   -1.175534
      8          6           0       -0.701634    0.265337    1.262656
      9          7           0        1.755425   -2.277329   -0.115816
     10          7           0       -1.751137    0.688046    0.343180
     11          8           0       -2.721936   -1.366906    0.263835
     12         17           0        1.383828    2.253736    0.007395
     13          1           0        3.390397    0.521318   -1.090270
     14          1           0        3.531542   -1.974057   -1.127050
     15          1           0       -0.047090   -2.342584    0.890953
     16          1           0       -3.443325   -0.165835   -2.130980
     17          1           0       -4.657264    0.077336   -0.874984
     18          1           0       -3.567105    1.415490   -1.321104
     19          1           0       -1.135596   -0.504804    1.903179
     20          1           0       -0.428750    1.120165    1.887684
     21          1           0       -1.660225    1.590869   -0.100600
 ---------------------------------------------------------------------

 SCF Done:  E(RB3LYP) =  -955.207539105     A.U. after    1 cycles

 Isotropic polarizability for W=    0.000000      103.12 Bohr**3.
 End of Minotr Frequency-dependent properties file   721 does not exist.

                     1                      2                      3
                     A                      A                      A
 Frequencies --    29.9085                41.7925                55.2371
 Red. masses --     5.3012                 2.4076                 2.0167
 Frc consts  --     0.0028                 0.0025                 0.0036
 IR Inten    --     1.8172                 0.5962                 8.2354

                     4                      5                      6
                     A                      A                      A
 Frequencies --    70.2587               139.7093               180.6577
 Red. masses --     2.3075                 4.9221                 7.6121
 Frc consts  --     0.0067                 0.0566                 0.1464
 IR Inten    --     5.8648                 0.9162                 2.1362

                     7                      8                      9
                     A                      A                      A
 Frequencies --   208.1918               298.3643               324.8692
 Red. masses --     7.4203                 4.0404                 3.8920
 Frc consts  --     0.1895                 0.2119                 0.2420
 IR Inten    --     3.8076                 3.5848                 3.3428

                    10                     11                     12
                     A                      A                      A
 Frequencies --   371.7195               416.9643               440.7380
 Red. masses --     3.5566                 3.2042                 3.7186
 Frc consts  --     0.2895                 0.3282                 0.4256
 IR Inten    --     3.9145                 1.9275                 4.5757

                    13                     14                     15
                     A                      A                      A
 Frequencies --   448.5404               483.7016               547.3512
 Red. masses --     1.2339                 3.9507                 5.2724
 Frc consts  --     0.1463                 0.5446                 0.9307
 IR Inten    --   109.2705                23.0293                 2.9662

                    16                     17                     18
                     A                      A                      A
 Frequencies --   615.6616               624.6200               672.8081
 Red. masses --     3.0148                 3.9480                 3.7743
 Frc consts  --     0.6733                 0.9075                 1.0066
 IR Inten    --     1.5198                 4.9192                 4.5144

                    19                     20                     21
                     A                      A                      A
 Frequencies --   700.8664               757.9139               834.0819
 Red. masses --     7.2493                 4.3918                 1.8906
 Frc consts  --     2.0981                 1.4864                 0.7749
 IR Inten    --    31.1831                 6.7558                24.0304

                    22                     23                     24
                     A                      A                      A
 Frequencies --   849.8159               855.0312               950.2842
 Red. masses --     2.3103                 2.5945                 1.4078
 Frc consts  --     0.9830                 1.1175                 0.7491
 IR Inten    --    15.6666                 7.2841                 2.4014

                    25                     26                     27
                     A                      A                      A
 Frequencies --   985.4532               996.7529              1035.1961
 Red. masses --     1.4428                 1.6573                 2.6368
 Frc consts  --     0.8255                 0.9701                 1.6648
 IR Inten    --     0.6952                 1.5097                 8.0896

                    28                     29                     30
                     A                      A                      A
 Frequencies --  1066.7371              1069.1606              1096.3971
 Red. masses --     2.5431                 1.9551                 3.6883
 Frc consts  --     1.7050                 1.3167                 2.6122
 IR Inten    --    13.4472                 6.5033                29.4413

                    31                     32                     33
                     A                      A                      A
 Frequencies --  1107.0784              1223.7064              1227.2720
 Red. masses --     3.1210                 1.8594                 2.4258
 Frc consts  --     2.2537                 1.6405                 2.1528
 IR Inten    --     8.8907                 1.5362                 1.2704

                    34                     35                     36
                     A                      A                      A
 Frequencies --  1263.9442              1286.1917              1313.8715
 Red. masses --     1.6110                 2.8385                 2.4525
 Frc consts  --     1.5164                 2.7666                 2.4944
 IR Inten    --    22.7762                90.0581                31.3271

                    37                     38                     39
                     A                      A                      A
 Frequencies --  1353.1617              1407.3633              1426.2880
 Red. masses --     1.3734                 1.2835                 1.2636
 Frc consts  --     1.4817                 1.4978                 1.5145
 IR Inten    --    21.0216                12.8715                20.8568

                    40                     41                     42
                     A                      A                      A
 Frequencies --  1449.8036              1493.2951              1500.4507
 Red. masses --     1.9909                 1.1820                 1.0562
 Frc consts  --     2.4655                 1.5530                 1.4010
 IR Inten    --    18.4304                16.3965                 8.7478

                    43                     44                     45
                     A                      A                      A
 Frequencies --  1514.8774              1519.8491              1550.3994
 Red. masses --     1.1158                 1.8645                 1.8429
 Frc consts  --     1.5086                 2.5376                 2.6100
 IR Inten    --    35.8449                27.8803               220.1102

                    46                     47                     48
                     A                      A                      A
 Frequencies --  1606.0287              1632.5742              1782.3435
 Red. masses --     5.1306                 7.3527                 9.1943
 Frc consts  --     7.7970                11.5463                17.2089
 IR Inten    --    62.7155                30.5841               187.1033

                    49                     50                     51
                     A                      A                      A
 Frequencies --  3064.5233              3093.4299              3135.0281
 Red. masses --     1.0359                 1.0623                 1.1026
 Frc consts  --     5.7318                 5.9896                 6.3851
 IR Inten    --     7.2437                18.3056                12.9478

                    52                     53                     54
                     A                      A                      A
 Frequencies --  3149.2509              3150.7350              3180.5554
 Red. masses --     1.1022                 1.1031                 1.0895
 Frc consts  --     6.4403                 6.4517                 6.4936
 IR Inten    --     8.2663                 2.5799                23.6111

                    55                     56                     57
                     A                      A                      A
 Frequencies --  3192.3617              3230.3816              3629.2043
 Red. masses --     1.0915                 1.0941                 1.0779
 Frc consts  --     6.5538                 6.7271                 8.3648
 IR Inten    --     4.9689                 3.5569                18.7269

 - Thermochemistry -
 -------------------
 Temperature   298.150 Kelvin.  Pressure   1.00000 Atm.
 Atom     1 has atomic number  6 and mass  12.00000

 Molecular mass:   184.04034 amu.
 Principal axes and moments of inertia in atomic units:
                           1         2         3
     Eigenvalues --  1579.224993126.968404184.63968
           X            0.99935  -0.03515   0.00783
           Y            0.03518   0.99937  -0.00379
           Z           -0.00769   0.00407   0.99996
 This molecule is an asymmetric top.
 Rotational symmetry number  1.
 Warning -- assumption of classical behavior for rotation
           may cause significant error
 Rotational temperatures (Kelvin)      0.05485     0.02770     0.02070
 Rotational constants (GHZ):           1.14280     0.57715     0.43128
 Zero-point vibrational energy     428578.6 (Joules/Mol)
                                  102.43275 (Kcal/Mol)
 Warning -- explicit consideration of  16 degrees of freedom as
           vibrations may cause significant error
 Vibrational temperatures:     43.03    60.13    79.47   101.09   201.01
          (Kelvin)            259.93   299.54   429.28   467.41   534.82
                              599.92   634.12   645.35   695.94   787.52
                              885.80   898.69   968.02  1008.39  1090.47
                             1200.06  1222.69  1230.20  1367.25  1417.85
                             1434.10  1489.41  1534.79  1538.28  1577.47
                             1592.84  1760.64  1765.77  1818.53  1850.54
                             1890.37  1946.90  2024.88  2052.11  2085.94
                             2148.52  2158.81  2179.57  2186.72  2230.68
                             2310.71  2348.91  2564.39  4409.16  4450.75
                             4510.60  4531.06  4533.20  4576.10  4593.09
                             4647.79  5221.61

 Zero-point correction=                           0.163237 (Hartree/Particle)
 Thermal correction to Energy=                    0.174834
 Thermal correction to Enthalpy=                  0.175779
 Thermal correction to Gibbs Free Energy=         0.123199
 Sum of electronic and zero-point Energies=           -955.044302
 Sum of electronic and thermal Energies=              -955.032705
 Sum of electronic and thermal Enthalpies=            -955.031761
 Sum of electronic and thermal Free Energies=         -955.084340

                     E (Thermal)             CV                S
                      KCal/Mol        Cal/Mol-Kelvin    Cal/Mol-Kelvin
 Total                  109.710             41.523            110.663
 Electronic               0.000              0.000              0.000
 Translational            0.889              2.981             41.536
 Rotational               0.889              2.981             31.403
 Vibrational            107.933             35.561             37.724
 Vibration     1          0.594              1.984              5.835
 Vibration     2          0.594              1.980              5.172
 Vibration     3          0.596              1.975              4.621
 Vibration     4          0.598              1.968              4.146
 Vibration     5          0.615              1.914              2.808
 Vibration     6          0.630              1.866              2.322
 Vibration     7          0.642              1.828              2.059
 Vibration     8          0.691              1.677              1.426
 Vibration     9          0.709              1.626              1.285
 Vibration    10          0.743              1.530              1.073
 Vibration    11          0.780              1.433              0.902
 Vibration    12          0.801              1.381              0.824
 Vibration    13          0.808              1.364              0.800
 Vibration    14          0.840              1.286              0.700
 Vibration    15          0.903              1.145              0.550
 Vibration    16          0.975              0.999              0.423

 Optimization completed.
    -- Stationary point found.
 Normal termination of Gaussian 09 at Fri Feb 16 20:29:02 2018.
