 Gaussian 09, Revision C.01,
 Gaussian 09:  AM64L-G09RevC.01 23-Sep-2011

 ----------------------------------------------------------------------
 #HF/6-31G* Geom=AllCheck Guess=Read Pop=(MK,ReadRadii) Integral=(Grid=
 UltraFine) iop(6/33=2)
 ----------------------------------------------------------------------

 Structure from the checkpoint file:  frag28-conf1.chk
 -----------------------------
 Optimization for frag28-conf1
 -----------------------------
 Charge =  0 Multiplicity = 1

                         Standard orientation:
 ---------------------------------------------------------------------
 Center     Atomic      Atomic             Coordinates (Angstroms)
 Number     Number       Type             X           Y           Z
 ---------------------------------------------------------------------
      1          6           0        2.615677   -0.087013   -0.637023
      2          6           0        2.684948   -1.480156   -0.653563
      3          6           0        0.712103   -1.685161    0.472016
      4          6           0        0.524218   -0.297188    0.570539
      5          6           0        1.514249    0.494795   -0.017154
      6          6           0       -2.672434   -0.208804   -0.132733
      7          6           0       -3.637492    0.332993   -1.175534
      8          6           0       -0.701634    0.265337    1.262656
      9          7           0        1.755425   -2.277329   -0.115816
     10          7           0       -1.751137    0.688046    0.343180
     11          8           0       -2.721936   -1.366906    0.263835
     12         17           0        1.383828    2.253736    0.007395
     13          1           0        3.390397    0.521318   -1.090270
     14          1           0        3.531542   -1.974057   -1.127050
     15          1           0       -0.047090   -2.342584    0.890953
     16          1           0       -3.443325   -0.165835   -2.130980
     17          1           0       -4.657264    0.077336   -0.874984
     18          1           0       -3.567105    1.415490   -1.321104
     19          1           0       -1.135596   -0.504804    1.903179
     20          1           0       -0.428750    1.120165    1.887684
     21          1           0       -1.660225    1.590869   -0.100600
 ---------------------------------------------------------------------

 SCF Done:  E(RHF) =  -951.441937984     A.U. after   14 cycles

 The electronic state is 1-A.
 Alpha  occ. eigenvalues -- -104.84859 -20.52716 -15.59679 -15.57866 -11.35983
 Alpha  occ. eigenvalues --  -11.33364 -11.28976 -11.28573 -11.28493 -11.26569
 Alpha  occ. eigenvalues --  -11.26158 -11.24304 -10.58168  -8.05100  -8.04775
 Alpha  occ. eigenvalues --   -8.04773  -1.37922  -1.27096  -1.23514  -1.17700
 Alpha  occ. eigenvalues --   -1.07463  -1.05376  -1.01175  -0.94171  -0.86223
 Alpha  occ. eigenvalues --   -0.84032  -0.79163  -0.70888  -0.69951  -0.68566
 Alpha  occ. eigenvalues --   -0.65728  -0.65570  -0.62312  -0.59515  -0.58620
 Alpha  occ. eigenvalues --   -0.57460  -0.56846  -0.55783  -0.55346  -0.54083
 Alpha  occ. eigenvalues --   -0.50918  -0.50032  -0.47395  -0.43029  -0.42190
 Alpha  occ. eigenvalues --   -0.39628  -0.37669  -0.35240
 Alpha virt. eigenvalues --    0.10354   0.12139   0.17681   0.19572   0.21546
 Alpha virt. eigenvalues --    0.26352   0.27227   0.27489   0.29405   0.30481
 Alpha virt. eigenvalues --    0.31315   0.32426   0.33307   0.33580   0.39268

 Mulliken atomic charges:
              1
     1  C   -0.236716
     2  C    0.072899
     3  C    0.067221
     4  C   -0.006823
     5  C   -0.105984
     6  C    0.763488
     7  C   -0.578778
     8  C   -0.168742
     9  N   -0.518016
    10  N   -0.795255
    11  O   -0.625475
    12  Cl   0.000215
    13  H    0.238293
    14  H    0.214997
    15  H    0.245049
    16  H    0.208849
    17  H    0.212748
    18  H    0.170633
    19  H    0.235784
    20  H    0.210806
    21  H    0.394805
 Sum of Mulliken atomic charges =   0.00000

 Dipole moment (field-independent basis, Debye):
    X=              0.4842    Y=              3.8520    Z=             -1.0263  Tot=              4.0157
 Quadrupole moment (field-independent basis, Debye-Ang):
   XX=            -72.6007   YY=            -86.4173   ZZ=            -74.2816
   XY=             -7.5242   XZ=              0.7839   YZ=             -0.2852

 Normal termination of Gaussian 09 at Sat Feb 17 21:01:08 2018.
