 Gaussian 09, Revision C.01,
 Gaussian 09:  AM64L-G09RevC.01 23-Sep-2011

 ----------------------------------------------------------------------
 #HF/6-31G* Geom=AllCheck Guess=Read Pop=(MK,ReadRadii) Integral=(Grid=
 UltraFine) iop(6/33=2)
 ----------------------------------------------------------------------

 Structure from the checkpoint file:  frag33-conf1.chk
 -----------------------------
 Optimization for frag33-conf1
 -----------------------------
 Charge =  0 Multiplicity = 1

                         Standard orientation:
 ---------------------------------------------------------------------
 Center     Atomic      Atomic             Coordinates (Angstroms)
 Number     Number       Type             X           Y           Z
 ---------------------------------------------------------------------
      1          6           0       -0.626730    1.010564   -0.429840
      2          6           0       -1.652063   -2.320174   -1.291098
      3          6           0       -3.389916   -2.384813    0.541045
      4          6           0       -1.873685    3.064792   -0.826043
      5          6           0       -1.635765    2.282547    1.492314
      6          6           0        2.826912    1.168525   -0.674508
      7          6           0       -1.299700   -1.060980    0.940289
      8          6           0       -0.144494   -0.110628    0.520413
      9          6           0       -2.298637   -1.538724   -0.135858
     10          7           0        0.947566   -0.857882   -0.110844
     11          7           0       -1.325813    2.066008    0.086475
     12          8           0       -0.387661    0.910558   -1.635814
     13          8           0        3.373605   -1.404395   -0.469872
     14          8           0        2.635181   -0.126901    1.625772
     15         16           0        2.541401   -0.398409    0.187726
     16          1           0       -1.019052   -3.134038   -0.917709
     17          1           0       -2.425304   -2.763070   -1.929894
     18          1           0       -1.045841   -1.668829   -1.927542
     19          1           0       -2.964362   -3.298455    0.975543
     20          1           0       -3.888699   -1.833767    1.347748
     21          1           0       -4.155726   -2.686998   -0.182316
     22          1           0       -2.967059    3.102002   -0.737579
     23          1           0       -1.597692    2.794469   -1.843703
     24          1           0       -1.473376    4.057870   -0.586332
     25          1           0       -1.378987    3.312548    1.768420
     26          1           0       -1.070826    1.612156    2.137262
     27          1           0       -2.706747    2.135970    1.687818
     28          1           0        3.879230    1.420931   -0.524879
     29          1           0        2.609280    1.038315   -1.735602
     30          1           0        2.188575    1.942803   -0.245722
     31          1           0       -0.823010   -1.929026    1.411448
     32          1           0       -1.875326   -0.556236    1.727496
     33          1           0        0.279323    0.302484    1.439081
     34          1           0       -2.787127   -0.651292   -0.565636
     35          1           0        0.803504   -0.980918   -1.111906
 ---------------------------------------------------------------------

 SCF Done:  E(RHF) =  -1083.37953676     A.U. after   13 cycles

 The electronic state is 1-A.
 Alpha  occ. eigenvalues --  -92.20637 -20.55256 -20.54932 -20.54601 -15.61807
 Alpha  occ. eigenvalues --  -15.60327 -11.37496 -11.30189 -11.29069 -11.27399
 Alpha  occ. eigenvalues --  -11.27326 -11.24566 -11.24196 -11.22311 -11.21619
 Alpha  occ. eigenvalues --   -9.17733  -6.86326  -6.86312  -6.86216  -1.44825
 Alpha  occ. eigenvalues --   -1.39877  -1.33054  -1.26445  -1.23603  -1.10022
 Alpha  occ. eigenvalues --   -1.03909  -1.01537  -0.99088  -0.95680  -0.93403
 Alpha  occ. eigenvalues --   -0.88883  -0.82940  -0.78966  -0.75547  -0.73822
 Alpha  occ. eigenvalues --   -0.70152  -0.68154  -0.67724  -0.66487  -0.65015
 Alpha  occ. eigenvalues --   -0.63913  -0.61582  -0.61052  -0.60627  -0.59925
 Alpha  occ. eigenvalues --   -0.59164  -0.58530  -0.57693  -0.57043  -0.55431
 Alpha  occ. eigenvalues --   -0.54901  -0.54228  -0.53240  -0.52192  -0.49615
 Alpha  occ. eigenvalues --   -0.48557  -0.47505  -0.47345  -0.47157  -0.45990
 Alpha  occ. eigenvalues --   -0.45663  -0.43718  -0.41783  -0.39140
 Alpha virt. eigenvalues --    0.16604   0.19036   0.22344   0.22687   0.23323
 Alpha virt. eigenvalues --    0.25058   0.26036   0.26129   0.27136   0.27631
 Alpha virt. eigenvalues --    0.27868   0.28668   0.28759   0.29361   0.29851

 Mulliken atomic charges:
              1
     1  C    0.801555
     2  C   -0.493693
     3  C   -0.476926
     4  C   -0.299581
     5  C   -0.289667
     6  C   -0.709497
     7  C   -0.292070
     8  C   -0.130187
     9  C   -0.165333
    10  N   -0.844677
    11  N   -0.668497
    12  O   -0.663317
    13  O   -0.677282
    14  O   -0.707458
    15  S    1.592356
    16  H    0.170761
    17  H    0.163459
    18  H    0.177478
    19  H    0.162983
    20  H    0.155277
    21  H    0.167380
    22  H    0.170679
    23  H    0.241128
    24  H    0.170325
    25  H    0.186085
    26  H    0.194821
    27  H    0.180532
    28  H    0.235119
    29  H    0.236450
    30  H    0.209621
    31  H    0.203996
    32  H    0.163341
    33  H    0.245246
    34  H    0.162041
    35  H    0.427551
 Sum of Mulliken atomic charges =   0.00000

 Dipole moment (field-independent basis, Debye):
    X=             -5.3561    Y=              4.8354    Z=              0.3865  Tot=              7.2262
 Quadrupole moment (field-independent basis, Debye-Ang):
   XX=           -108.7360   YY=            -95.3629   ZZ=           -106.2996
   XY=              8.4616   XZ=             -8.6530   YZ=              2.1315

 Normal termination of Gaussian 09 at Sat Feb 17 21:04:00 2018.
