 Gaussian 09, Revision C.01,
 Gaussian 09:  AM64L-G09RevC.01 23-Sep-2011

 ---------------------------------------------------------
 #B3LYP/6-31G* Integral=(Grid=UltraFine) freq Opt pop=none
 ---------------------------------------------------------

 99/9=1/99;
 -----------------------------
 Optimization for frag33-conf1
 -----------------------------
 Charge =  0 Multiplicity = 1

 SCF Done:  E(RB3LYP) =  -1088.31066788     A.U. after   15 cycles
 SCF Done:  E(RB3LYP) =  -1088.31505170     A.U. after   12 cycles
 SCF Done:  E(RB3LYP) =  -1088.31511372     A.U. after   13 cycles
 SCF Done:  E(RB3LYP) =  -1088.31570473     A.U. after   12 cycles
 SCF Done:  E(RB3LYP) =  -1088.31586216     A.U. after   12 cycles
 SCF Done:  E(RB3LYP) =  -1088.31592839     A.U. after   11 cycles
 SCF Done:  E(RB3LYP) =  -1088.31586287     A.U. after   12 cycles
 SCF Done:  E(RB3LYP) =  -1088.31595187     A.U. after   12 cycles
 SCF Done:  E(RB3LYP) =  -1088.31595618     A.U. after   10 cycles
 SCF Done:  E(RB3LYP) =  -1088.31595771     A.U. after    9 cycles
 SCF Done:  E(RB3LYP) =  -1088.31595870     A.U. after    8 cycles
 SCF Done:  E(RB3LYP) =  -1088.31595958     A.U. after    8 cycles
 SCF Done:  E(RB3LYP) =  -1088.31596003     A.U. after    7 cycles
 SCF Done:  E(RB3LYP) =  -1088.31596017     A.U. after    8 cycles
 Optimization completed.
    -- Stationary point found.
 Normal termination of Gaussian 09 at Fri Feb 16 21:02:01 2018.

 --------------------------------------------------------------------
 #N Geom=AllCheck Guess=TCheck SCRF=Check GenChk RB3LYP/6-31G(d) Freq
 --------------------------------------------------------------------

 Structure from the checkpoint file:  frag33-conf1.chk
 -----------------------------
 Optimization for frag33-conf1
 -----------------------------
 Charge =  0 Multiplicity = 1

                         Standard orientation:
 ---------------------------------------------------------------------
 Center     Atomic      Atomic             Coordinates (Angstroms)
 Number     Number       Type             X           Y           Z
 ---------------------------------------------------------------------
      1          6           0       -0.626730    1.010564   -0.429840
      2          6           0       -1.652063   -2.320174   -1.291098
      3          6           0       -3.389916   -2.384813    0.541045
      4          6           0       -1.873685    3.064792   -0.826043
      5          6           0       -1.635765    2.282547    1.492314
      6          6           0        2.826912    1.168525   -0.674508
      7          6           0       -1.299700   -1.060980    0.940289
      8          6           0       -0.144494   -0.110628    0.520413
      9          6           0       -2.298637   -1.538724   -0.135858
     10          7           0        0.947566   -0.857882   -0.110844
     11          7           0       -1.325813    2.066008    0.086475
     12          8           0       -0.387661    0.910558   -1.635814
     13          8           0        3.373605   -1.404395   -0.469872
     14          8           0        2.635181   -0.126901    1.625772
     15         16           0        2.541401   -0.398409    0.187726
     16          1           0       -1.019052   -3.134038   -0.917709
     17          1           0       -2.425304   -2.763070   -1.929894
     18          1           0       -1.045841   -1.668829   -1.927542
     19          1           0       -2.964362   -3.298455    0.975543
     20          1           0       -3.888699   -1.833767    1.347748
     21          1           0       -4.155726   -2.686998   -0.182316
     22          1           0       -2.967059    3.102002   -0.737579
     23          1           0       -1.597692    2.794469   -1.843703
     24          1           0       -1.473376    4.057870   -0.586332
     25          1           0       -1.378987    3.312548    1.768420
     26          1           0       -1.070826    1.612156    2.137262
     27          1           0       -2.706747    2.135970    1.687818
     28          1           0        3.879230    1.420931   -0.524879
     29          1           0        2.609280    1.038315   -1.735602
     30          1           0        2.188575    1.942803   -0.245722
     31          1           0       -0.823010   -1.929026    1.411448
     32          1           0       -1.875326   -0.556236    1.727496
     33          1           0        0.279323    0.302484    1.439081
     34          1           0       -2.787127   -0.651292   -0.565636
     35          1           0        0.803504   -0.980918   -1.111906
 ---------------------------------------------------------------------

 SCF Done:  E(RB3LYP) =  -1088.31596017     A.U. after    1 cycles

 Isotropic polarizability for W=    0.000000      133.49 Bohr**3.
 End of Minotr Frequency-dependent properties file   721 does not exist.

                     1                      2                      3
                     A                      A                      A
 Frequencies --    30.5823                41.8050                53.6489
 Red. masses --     4.8004                 3.4772                 3.8398
 Frc consts  --     0.0026                 0.0036                 0.0065
 IR Inten    --     4.8020                 0.6716                 3.7412

                     4                      5                      6
                     A                      A                      A
 Frequencies --    61.4965                72.6731                84.8760
 Red. masses --     2.6585                 2.6079                 3.4237
 Frc consts  --     0.0059                 0.0081                 0.0145
 IR Inten    --     0.1404                 2.9041                 3.0482

                     7                      8                      9
                     A                      A                      A
 Frequencies --   104.2137               125.8175               148.7342
 Red. masses --     1.6611                 1.8685                 1.6579
 Frc consts  --     0.0106                 0.0174                 0.0216
 IR Inten    --     0.3435                 1.5551                 1.3697

                    10                     11                     12
                     A                      A                      A
 Frequencies --   177.1121               197.0490               211.6174
 Red. masses --     3.1292                 1.4780                 1.8723
 Frc consts  --     0.0578                 0.0338                 0.0494
 IR Inten    --     0.9281                 0.6459                 2.3715

                    13                     14                     15
                     A                      A                      A
 Frequencies --   225.6568               238.7283               248.9384
 Red. masses --     2.8939                 1.1710                 1.9980
 Frc consts  --     0.0868                 0.0393                 0.0730
 IR Inten    --     1.7041                 0.1656                 2.8896

                    16                     17                     18
                     A                      A                      A
 Frequencies --   260.0687               275.7491               290.0337
 Red. masses --     2.8711                 1.8410                 1.8494
 Frc consts  --     0.1144                 0.0825                 0.0917
 IR Inten    --     0.6897                 0.7297                 0.4440

                    19                     20                     21
                     A                      A                      A
 Frequencies --   328.1517               348.0954               379.6089
 Red. masses --     3.5482                 2.7145                 2.6811
 Frc consts  --     0.2251                 0.1938                 0.2276
 IR Inten    --     1.1875                20.2212                10.4157

                    22                     23                     24
                     A                      A                      A
 Frequencies --   399.7321               422.7408               432.1819
 Red. masses --     2.5991                 2.0754                 2.5007
 Frc consts  --     0.2447                 0.2185                 0.2752
 IR Inten    --    23.4670                 1.1332                 7.1433

                    25                     26                     27
                     A                      A                      A
 Frequencies --   463.5048               483.3101               525.1779
 Red. masses --     4.0196                 6.9373                 4.3593
 Frc consts  --     0.5088                 0.9548                 0.7084
 IR Inten    --    14.9265                17.3560                31.0182

                    28                     29                     30
                     A                      A                      A
 Frequencies --   550.2173               593.4049               629.6425
 Red. masses --     4.5494                 2.9446                 3.8902
 Frc consts  --     0.8115                 0.6109                 0.9087
 IR Inten    --    11.4856                43.7320                45.0895

                    31                     32                     33
                     A                      A                      A
 Frequencies --   734.7152               752.3133               780.4365
 Red. masses --     5.0604                 5.8353                 3.6739
 Frc consts  --     1.6094                 1.9459                 1.3184
 IR Inten    --    37.3976                86.0298                27.9056

                    34                     35                     36
                     A                      A                      A
 Frequencies --   793.4150               906.3254               919.0979
 Red. masses --     2.6945                 1.6408                 2.3245
 Frc consts  --     0.9994                 0.7941                 1.1569
 IR Inten    --    34.2595                10.5921                 5.7995

                    37                     38                     39
                     A                      A                      A
 Frequencies --   925.0810               946.1534               968.3057
 Red. masses --     2.6061                 1.2042                 2.7066
 Frc consts  --     1.3140                 0.6352                 1.4952
 IR Inten    --     5.9496                 3.5706                 7.2395

                    40                     41                     42
                     A                      A                      A
 Frequencies --   981.5739               993.6067              1006.6695
 Red. masses --     1.5281                 1.3665                 1.6144
 Frc consts  --     0.8675                 0.7948                 0.9639
 IR Inten    --     0.6972                 2.2464                63.7363

                    43                     44                     45
                     A                      A                      A
 Frequencies --  1038.3550              1086.7455              1097.6523
 Red. masses --     2.1568                 1.3850                 2.6523
 Frc consts  --     1.3701                 0.9637                 1.8828
 IR Inten    --    15.7049                 3.8438                52.8484

                    46                     47                     48
                     A                      A                      A
 Frequencies --  1135.1417              1137.6033              1146.7059
 Red. masses --     4.0008                 1.2501                 2.4480
 Frc consts  --     3.0373                 0.9532                 1.8965
 IR Inten    --   254.2144                 7.5059                33.9341

                    49                     50                     51
                     A                      A                      A
 Frequencies --  1155.2433              1184.3434              1188.8927
 Red. masses --     2.0990                 1.5416                 1.9912
 Frc consts  --     1.6505                 1.2740                 1.6582
 IR Inten    --    57.8628                 8.5472                22.9175

                    52                     53                     54
                     A                      A                      A
 Frequencies --  1204.8754              1268.9370              1284.4531
 Red. masses --     1.7810                 1.5690                 3.8592
 Frc consts  --     1.5233                 1.4885                 3.7514
 IR Inten    --     0.6795                 1.2127                43.8835

                    55                     56                     57
                     A                      A                      A
 Frequencies --  1316.6536              1325.1378              1350.3822
 Red. masses --     1.3142                 2.0325                 2.1559
 Frc consts  --     1.3423                 2.1028                 2.3163
 IR Inten    --     4.1516                71.0006                76.5168

                    58                     59                     60
                     A                      A                      A
 Frequencies --  1365.4833              1381.1360              1391.9350
 Red. masses --     1.3592                 1.2126                 1.3319
 Frc consts  --     1.4932                 1.3628                 1.5204
 IR Inten    --    33.2137                 6.9898                 3.6073

                    61                     62                     63
                     A                      A                      A
 Frequencies --  1412.7941              1429.5491              1443.9600
 Red. masses --     1.4766                 1.2599                 1.9402
 Frc consts  --     1.7365                 1.5170                 2.3835
 IR Inten    --    12.8146                10.5409               140.5244

                    64                     65                     66
                     A                      A                      A
 Frequencies --  1450.9132              1453.0112              1476.6741
 Red. masses --     1.2431                 1.1981                 1.0543
 Frc consts  --     1.5418                 1.4903                 1.3546
 IR Inten    --     5.7719                18.5366                 6.1639

                    67                     68                     69
                     A                      A                      A
 Frequencies --  1481.8796              1492.1191              1500.1601
 Red. masses --     1.2244                 1.1562                 1.1372
 Frc consts  --     1.5842                 1.5166                 1.5078
 IR Inten    --    16.2185                 8.8766                15.0129

                    70                     71                     72
                     A                      A                      A
 Frequencies --  1504.4237              1513.7454              1520.9700
 Red. masses --     1.1422                 1.0480                 1.0560
 Frc consts  --     1.5231                 1.4149                 1.4393
 IR Inten    --     9.7603                 5.1450                 3.4862

                    73                     74                     75
                     A                      A                      A
 Frequencies --  1526.2112              1530.3580              1532.7405
 Red. masses --     1.0503                 1.0614                 1.0490
 Frc consts  --     1.4414                 1.4646                 1.4520
 IR Inten    --     7.8081                13.0029                13.7464

                    76                     77                     78
                     A                      A                      A
 Frequencies --  1534.8357              1554.6526              1565.7646
 Red. masses --     1.0571                 1.0474                 1.2488
 Frc consts  --     1.4672                 1.4915                 1.8039
 IR Inten    --     2.4551                12.3190                26.3854

                    79                     80                     81
                     A                      A                      A
 Frequencies --  1729.1679              3014.4832              3034.5301
 Red. masses --     9.1685                 1.0834                 1.0421
 Frc consts  --    16.1518                 5.8003                 5.6537
 IR Inten    --   253.6704                19.9079                19.8762

                    82                     83                     84
                     A                      A                      A
 Frequencies --  3037.2811              3041.5870              3043.3720
 Red. masses --     1.0399                 1.0434                 1.0526
 Frc consts  --     5.6520                 5.6875                 5.7440
 IR Inten    --    11.9563                45.2989                84.6002

                    85                     86                     87
                     A                      A                      A
 Frequencies --  3050.1150              3085.1432              3087.0935
 Red. masses --     1.0391                 1.1017                 1.0295
 Frc consts  --     5.6954                 6.1781                 5.7809
 IR Inten    --    13.3697                45.4765                 0.8824

                    88                     89                     90
                     A                      A                      A
 Frequencies --  3089.6157              3090.3576              3102.9808
 Red. masses --     1.1048                 1.1009                 1.1019
 Frc consts  --     6.2137                 6.1945                 6.2513
 IR Inten    --    13.9829                 7.0003                40.3498

                    91                     92                     93
                     A                      A                      A
 Frequencies --  3108.0723              3109.1637              3113.9933
 Red. masses --     1.1001                 1.0863                 1.1014
 Frc consts  --     6.2611                 6.1874                 6.2928
 IR Inten    --     4.8461                15.5338                64.9362

                    94                     95                     96
                     A                      A                      A
 Frequencies --  3132.2332              3184.5392              3192.8799
 Red. masses --     1.1011                 1.1065                 1.0942
 Frc consts  --     6.3646                 6.6112                 6.5725
 IR Inten    --    25.8744                 2.8528                 9.4772

                    97                     98                     99
                     A                      A                      A
 Frequencies --  3195.2071              3198.6405              3528.5423
 Red. masses --     1.1075                 1.0964                 1.0736
 Frc consts  --     6.6619                 6.6094                 7.8755
 IR Inten    --     0.9660                 1.6205                37.4561

 - Thermochemistry -
 -------------------
 Temperature   298.150 Kelvin.  Pressure   1.00000 Atm.
 Atom     1 has atomic number  6 and mass  12.00000

 Molecular mass:   236.11946 amu.
 Principal axes and moments of inertia in atomic units:
                           1         2         3
     Eigenvalues --  2902.900794604.428976020.95123
           X            0.99862   0.05023  -0.01502
           Y           -0.05008   0.99869   0.01031
           Z            0.01552  -0.00954   0.99983
 This molecule is an asymmetric top.
 Rotational symmetry number  1.
 Warning -- assumption of classical behavior for rotation
           may cause significant error
 Rotational temperatures (Kelvin)      0.02984     0.01881     0.01439
 Rotational constants (GHZ):           0.62170     0.39196     0.29974
 Zero-point vibrational energy     791124.6 (Joules/Mol)
                                  189.08331 (Kcal/Mol)
 Warning -- explicit consideration of  29 degrees of freedom as
           vibrations may cause significant error
 Vibrational temperatures:     44.00    60.15    77.19    88.48   104.56
          (Kelvin)            122.12   149.94   181.02   214.00   254.82
                              283.51   304.47   324.67   343.48   358.17
                              374.18   396.74   417.29   472.14   500.83
                              546.17   575.12   608.23   621.81   666.88
                              695.37   755.61   791.64   853.78   905.91
                             1057.09  1082.41  1122.87  1141.55  1304.00
                             1322.38  1330.98  1361.30  1393.17  1412.26
                             1429.58  1448.37  1493.96  1563.58  1579.27
                             1633.21  1636.76  1649.85  1662.14  1704.00
                             1710.55  1733.54  1825.71  1848.04  1894.37
                             1906.58  1942.90  1964.62  1987.14  2002.68
                             2032.69  2056.80  2077.53  2087.54  2090.56
                             2124.60  2132.09  2146.82  2158.39  2164.53
                             2177.94  2188.33  2195.87  2201.84  2205.27
                             2208.28  2236.80  2252.78  2487.88  4337.16
                             4366.01  4369.96  4376.16  4378.73  4388.43
                             4438.83  4441.63  4445.26  4446.33  4464.49
                             4471.82  4473.39  4480.34  4506.58  4581.84
                             4593.84  4597.18  4602.12  5076.78

 Zero-point correction=                           0.301323 (Hartree/Particle)
 Thermal correction to Energy=                    0.319957
 Thermal correction to Enthalpy=                  0.320901
 Thermal correction to Gibbs Free Energy=         0.253824
 Sum of electronic and zero-point Energies=          -1088.014637
 Sum of electronic and thermal Energies=             -1087.996003
 Sum of electronic and thermal Enthalpies=           -1087.995059
 Sum of electronic and thermal Free Energies=        -1088.062136

                     E (Thermal)             CV                S
                      KCal/Mol        Cal/Mol-Kelvin    Cal/Mol-Kelvin
 Total                  200.776             66.869            141.176
 Electronic               0.000              0.000              0.000
 Translational            0.889              2.981             42.279
 Rotational               0.889              2.981             32.754
 Vibrational            198.999             60.908             66.143
 Vibration     1          0.594              1.984              5.791
 Vibration     2          0.594              1.980              5.172
 Vibration     3          0.596              1.976              4.678
 Vibration     4          0.597              1.973              4.409
 Vibration     5          0.599              1.967              4.080
 Vibration     6          0.601              1.960              3.775
 Vibration     7          0.605              1.946              3.374
 Vibration     8          0.611              1.927              3.009
 Vibration     9          0.618              1.904              2.688
 Vibration    10          0.628              1.871              2.359
 Vibration    11          0.636              1.844              2.160
 Vibration    12          0.643              1.823              2.030
 Vibration    13          0.650              1.802              1.913
 Vibration    14          0.657              1.781              1.812
 Vibration    15          0.662              1.765              1.738
 Vibration    16          0.668              1.746              1.661
 Vibration    17          0.677              1.718              1.560
 Vibration    18          0.686              1.692              1.474
 Vibration    19          0.711              1.619              1.269
 Vibration    20          0.726              1.579              1.175
 Vibration    21          0.750              1.514              1.041
 Vibration    22          0.766              1.471              0.964
 Vibration    23          0.785              1.421              0.883
 Vibration    24          0.793              1.400              0.852
 Vibration    25          0.821              1.331              0.756
 Vibration    26          0.839              1.287              0.701
 Vibration    27          0.880              1.194              0.598
 Vibration    28          0.906              1.139              0.544
 Vibration    29          0.951              1.046              0.461

 Normal termination of Gaussian 09 at Fri Feb 16 21:52:34 2018.
