 Gaussian 09, Revision C.01,
 Gaussian 09:  AM64L-G09RevC.01 23-Sep-2011

 ----------------------------------------------------------------------
 #HF/6-31G* Geom=AllCheck Guess=Read Pop=(MK,ReadRadii) Integral=(Grid=
 UltraFine) iop(6/33=2)
 ----------------------------------------------------------------------

 Structure from the checkpoint file:  frag4-conf0.chk
 ----------------------------
 Optimization for frag4-conf0
 ----------------------------
 Charge =  0 Multiplicity = 1

                         Standard orientation:
 ---------------------------------------------------------------------
 Center     Atomic      Atomic             Coordinates (Angstroms)
 Number     Number       Type             X           Y           Z
 ---------------------------------------------------------------------
      1          6           0        1.284970    0.065286    0.199168
      2          6           0       -1.700261   -1.235472   -0.000014
      3          6           0       -0.917054    2.343337    0.218563
      4          6           0       -0.026068    1.904077   -0.955069
      5          6           0       -1.916708    1.187659    0.362790
      6          6           0        0.103834    0.374212   -0.746003
      7          6           0       -0.864172   -2.396245   -0.522694
      8          6           0        3.667862   -0.603439    0.268616
      9          7           0       -1.183946    0.023529   -0.158999
     10          7           0        2.422061   -0.349835   -0.435106
     11          8           0        1.207300    0.228695    1.409777
     12          8           0       -2.794911   -1.407895    0.525464
     13          1           0       -0.314230    2.428727    1.126718
     14          1           0       -1.410452    3.302649    0.036402
     15          1           0       -0.526864    2.089731   -1.912591
     16          1           0        0.945907    2.406423   -0.978809
     17          1           0       -2.222770    1.004575    1.395772
     18          1           0       -2.828241    1.347203   -0.227840
     19          1           0        0.247894   -0.142330   -1.703874
     20          1           0        0.124474   -2.430685   -0.051778
     21          1           0       -0.716784   -2.327146   -1.607788
     22          1           0       -1.399470   -3.319688   -0.298655
     23          1           0        4.460968    0.074248   -0.069166
     24          1           0        3.999963   -1.637736    0.122834
     25          1           0        3.480245   -0.434349    1.329821
     26          1           0        2.399020   -0.480356   -1.436382
 ---------------------------------------------------------------------

 SCF Done:  E(RHF) =  -569.748685009     A.U. after   13 cycles

 The electronic state is 1-A.
 Alpha  occ. eigenvalues --  -20.53288 -20.51411 -15.60398 -15.58374 -11.36012
 Alpha  occ. eigenvalues --  -11.34555 -11.29606 -11.27008 -11.25498 -11.24915
 Alpha  occ. eigenvalues --  -11.23532 -11.22973  -1.38572  -1.36529  -1.25151
 Alpha  occ. eigenvalues --   -1.23705  -1.07400  -1.02695  -0.99080  -0.95512
 Alpha  occ. eigenvalues --   -0.87208  -0.81955  -0.79987  -0.75688  -0.71758
 Alpha  occ. eigenvalues --   -0.67571  -0.65051  -0.64759  -0.63331  -0.61772
 Alpha  occ. eigenvalues --   -0.60234  -0.59090  -0.58362  -0.56932  -0.55539
 Alpha  occ. eigenvalues --   -0.55422  -0.53648  -0.53079  -0.50861  -0.49493
 Alpha  occ. eigenvalues --   -0.49073  -0.47738  -0.42587  -0.40788  -0.39783
 Alpha  occ. eigenvalues --   -0.36293
 Alpha virt. eigenvalues --    0.17740   0.19098   0.20429   0.23925   0.24686
 Alpha virt. eigenvalues --    0.26149   0.27323   0.28998   0.30082   0.30901
 Alpha virt. eigenvalues --    0.31163   0.31495   0.31897   0.32449   0.34227

 Mulliken atomic charges:
              1
     1  C    0.787401
     2  C    0.775065
     3  C   -0.364472
     4  C   -0.338684
     5  C   -0.061422
     6  C   -0.060237
     7  C   -0.601637
     8  C   -0.289243
     9  N   -0.686207
    10  N   -0.805204
    11  O   -0.622465
    12  O   -0.620882
    13  H    0.212425
    14  H    0.177422
    15  H    0.183928
    16  H    0.187611
    17  H    0.208173
    18  H    0.174216
    19  H    0.186254
    20  H    0.195934
    21  H    0.177675
    22  H    0.221283
    23  H    0.171225
    24  H    0.172267
    25  H    0.234577
    26  H    0.384998
 Sum of Mulliken atomic charges =   0.00000

 Dipole moment (field-independent basis, Debye):
    X=              4.6599    Y=              1.1571    Z=             -4.8542  Tot=              6.8277
 Quadrupole moment (field-independent basis, Debye-Ang):
   XX=            -77.0714   YY=            -68.9844   ZZ=            -73.8490
   XY=             -9.4040   XZ=             -1.1903   YZ=              2.0284

 Normal termination of Gaussian 09 at Sun Feb 18 17:07:29 2018.
