 Gaussian 09, Revision C.01,
 Gaussian 09:  AM64L-G09RevC.01 23-Sep-2011

 ---------------------------------------------------------
 #B3LYP/6-31G* Integral=(Grid=UltraFine) freq Opt pop=none
 ---------------------------------------------------------

 99/9=1/99;
 ----------------------------
 Optimization for frag4-conf0
 ----------------------------
 Charge =  0 Multiplicity = 1

 SCF Done:  E(RB3LYP) =  -573.256809708     A.U. after   14 cycles
 SCF Done:  E(RB3LYP) =  -573.259673726     A.U. after   12 cycles
 SCF Done:  E(RB3LYP) =  -573.259992902     A.U. after   12 cycles
 SCF Done:  E(RB3LYP) =  -573.259953302     A.U. after   13 cycles
 SCF Done:  E(RB3LYP) =  -573.260265484     A.U. after   12 cycles
 SCF Done:  E(RB3LYP) =  -573.260326427     A.U. after   12 cycles
 SCF Done:  E(RB3LYP) =  -573.260344600     A.U. after   10 cycles
 SCF Done:  E(RB3LYP) =  -573.260355783     A.U. after   11 cycles
 SCF Done:  E(RB3LYP) =  -573.260358240     A.U. after   11 cycles
 SCF Done:  E(RB3LYP) =  -573.260359668     A.U. after    9 cycles
 SCF Done:  E(RB3LYP) =  -573.260834513     A.U. after   12 cycles
 SCF Done:  E(RB3LYP) =  -573.260867952     A.U. after   11 cycles
 SCF Done:  E(RB3LYP) =  -573.260874834     A.U. after   11 cycles
 SCF Done:  E(RB3LYP) =  -573.260882165     A.U. after   12 cycles
 SCF Done:  E(RB3LYP) =  -573.260886437     A.U. after   12 cycles
 SCF Done:  E(RB3LYP) =  -573.260887858     A.U. after   10 cycles
 SCF Done:  E(RB3LYP) =  -573.260887997     A.U. after    8 cycles
 SCF Done:  E(RB3LYP) =  -573.260888123     A.U. after    8 cycles
 SCF Done:  E(RB3LYP) =  -573.260888111     A.U. after    7 cycles
 Optimization completed.
    -- Stationary point found.
 Normal termination of Gaussian 09 at Sat Feb 17 22:19:26 2018.

 --------------------------------------------------------------------
 #N Geom=AllCheck Guess=TCheck SCRF=Check GenChk RB3LYP/6-31G(d) Freq
 --------------------------------------------------------------------

 Structure from the checkpoint file:  frag4-conf0.chk
 ----------------------------
 Optimization for frag4-conf0
 ----------------------------
 Charge =  0 Multiplicity = 1

                         Standard orientation:
 ---------------------------------------------------------------------
 Center     Atomic      Atomic             Coordinates (Angstroms)
 Number     Number       Type             X           Y           Z
 ---------------------------------------------------------------------
      1          6           0        1.284970    0.065286    0.199168
      2          6           0       -1.700261   -1.235472   -0.000014
      3          6           0       -0.917054    2.343337    0.218563
      4          6           0       -0.026068    1.904077   -0.955069
      5          6           0       -1.916708    1.187659    0.362790
      6          6           0        0.103834    0.374212   -0.746003
      7          6           0       -0.864172   -2.396245   -0.522694
      8          6           0        3.667862   -0.603439    0.268616
      9          7           0       -1.183946    0.023529   -0.158999
     10          7           0        2.422061   -0.349835   -0.435106
     11          8           0        1.207300    0.228695    1.409777
     12          8           0       -2.794911   -1.407895    0.525464
     13          1           0       -0.314230    2.428727    1.126718
     14          1           0       -1.410452    3.302649    0.036402
     15          1           0       -0.526864    2.089731   -1.912591
     16          1           0        0.945907    2.406423   -0.978809
     17          1           0       -2.222770    1.004575    1.395772
     18          1           0       -2.828241    1.347203   -0.227840
     19          1           0        0.247894   -0.142330   -1.703874
     20          1           0        0.124474   -2.430685   -0.051778
     21          1           0       -0.716784   -2.327146   -1.607788
     22          1           0       -1.399470   -3.319688   -0.298655
     23          1           0        4.460968    0.074248   -0.069166
     24          1           0        3.999963   -1.637736    0.122834
     25          1           0        3.480245   -0.434349    1.329821
     26          1           0        2.399020   -0.480356   -1.436382
 ---------------------------------------------------------------------

 SCF Done:  E(RB3LYP) =  -573.260888111     A.U. after    1 cycles

 Isotropic polarizability for W=    0.000000       99.22 Bohr**3.
 End of Minotr Frequency-dependent properties file   721 does not exist.

                     1                      2                      3
                     A                      A                      A
 Frequencies --    18.9029                47.0463                67.2883
 Red. masses --     4.7173                 2.7220                 4.7159
 Frc consts  --     0.0010                 0.0035                 0.0126
 IR Inten    --     5.0715                 0.4298                 0.7926

                     4                      5                      6
                     A                      A                      A
 Frequencies --    75.9693               118.4585               129.1950
 Red. masses --     1.1434                 1.2996                 2.8077
 Frc consts  --     0.0039                 0.0107                 0.0276
 IR Inten    --     0.0745                 2.5106                 0.6143

                     7                      8                      9
                     A                      A                      A
 Frequencies --   152.1960               180.6825               223.9073
 Red. masses --     2.2520                 3.3256                 2.6544
 Frc consts  --     0.0307                 0.0640                 0.0784
 IR Inten    --     4.7843                11.3762                 0.2469

                    10                     11                     12
                     A                      A                      A
 Frequencies --   246.4373               285.4800               330.4071
 Red. masses --     3.7173                 2.4039                 5.8393
 Frc consts  --     0.1330                 0.1154                 0.3756
 IR Inten    --     4.4124                 3.5571                 3.3514

                    13                     14                     15
                     A                      A                      A
 Frequencies --   365.9691               398.1683               461.4285
 Red. masses --     4.0917                 4.4992                 1.2320
 Frc consts  --     0.3229                 0.4203                 0.1546
 IR Inten    --    18.8131                11.2653                76.3003

                    16                     17                     18
                     A                      A                      A
 Frequencies --   537.1254               585.9546               597.3406
 Red. masses --     3.3939                 2.0621                 2.7583
 Frc consts  --     0.5769                 0.4172                 0.5799
 IR Inten    --     3.3154                 1.2062                 4.8918

                    19                     20                     21
                     A                      A                      A
 Frequencies --   628.0963               709.4132               761.6369
 Red. masses --     3.8615                 3.6464                 4.1643
 Frc consts  --     0.8975                 1.0812                 1.4233
 IR Inten    --    10.9444                 5.5133                 1.7066

                    22                     23                     24
                     A                      A                      A
 Frequencies --   851.0773               876.5298               883.1034
 Red. masses --     2.2270                 4.3052                 2.1312
 Frc consts  --     0.9504                 1.9488                 0.9793
 IR Inten    --     2.7081                 3.6071                 1.5913

                    25                     26                     27
                     A                      A                      A
 Frequencies --   921.4669               930.7467               961.3921
 Red. masses --     1.8121                 2.5829                 2.1138
 Frc consts  --     0.9066                 1.3183                 1.1511
 IR Inten    --     5.2115                 1.9170                 4.7581

                    28                     29                     30
                     A                      A                      A
 Frequencies --  1001.7043              1034.3974              1062.7797
 Red. masses --     2.2095                 2.1297                 1.7260
 Frc consts  --     1.3063                 1.3426                 1.1486
 IR Inten    --     5.4619                 8.7859                 5.8309

                    31                     32                     33
                     A                      A                      A
 Frequencies --  1071.5245              1093.2476              1125.2924
 Red. masses --     3.4069                 1.7947                 1.7190
 Frc consts  --     2.3047                 1.2638                 1.2825
 IR Inten    --    14.5786                 0.5805                 0.9583

                    34                     35                     36
                     A                      A                      A
 Frequencies --  1161.3722              1177.9514              1196.1608
 Red. masses --     1.2795                 1.6282                 1.3122
 Frc consts  --     1.0168                 1.3311                 1.1062
 IR Inten    --     1.6563                36.7718                13.4736

                    37                     38                     39
                     A                      A                      A
 Frequencies --  1214.4383              1235.0272              1235.5594
 Red. masses --     1.6247                 1.9935                 2.7174
 Frc consts  --     1.4118                 1.7915                 2.4442
 IR Inten    --     5.4730                71.8031                85.9005

                    40                     41                     42
                     A                      A                      A
 Frequencies --  1272.4271              1305.2713              1339.3920
 Red. masses --     1.3012                 1.5936                 1.3465
 Frc consts  --     1.2413                 1.5996                 1.4232
 IR Inten    --    21.4063                 5.2216                 0.7943

                    43                     44                     45
                     A                      A                      A
 Frequencies --  1375.1675              1388.6373              1399.6269
 Red. masses --     1.3116                 1.4399                 1.6352
 Frc consts  --     1.4614                 1.6359                 1.8873
 IR Inten    --     0.0527                 0.7657                63.9989

                    46                     47                     48
                     A                      A                      A
 Frequencies --  1407.5532              1441.2580              1460.4171
 Red. masses --     1.4779                 3.0678                 1.1724
 Frc consts  --     1.7252                 3.7546                 1.4732
 IR Inten    --    23.2026               276.7950                19.4659

                    49                     50                     51
                     A                      A                      A
 Frequencies --  1500.8639              1515.5947              1517.8642
 Red. masses --     1.0830                 1.1221                 1.0475
 Frc consts  --     1.4373                 1.5186                 1.4219
 IR Inten    --     4.3320                30.2390                 7.4855

                    52                     53                     54
                     A                      A                      A
 Frequencies --  1520.0823              1526.0651              1529.8878
 Red. masses --     1.1707                 1.0978                 1.0452
 Frc consts  --     1.5937                 1.5064                 1.4414
 IR Inten    --    48.1562                 3.4303                 6.8436

                    55                     56                     57
                     A                      A                      A
 Frequencies --  1550.7162              1579.9171              1767.1747
 Red. masses --     1.0914                 1.5822                10.1202
 Frc consts  --     1.5463                 2.3269                18.6209
 IR Inten    --     1.4030               132.9546               289.8057

                    58                     59                     60
                     A                      A                      A
 Frequencies --  1789.8887              3036.9546              3046.9962
 Red. masses --     9.0653                 1.0825                 1.0712
 Frc consts  --    17.1114                 5.8826                 5.8594
 IR Inten    --   199.0671                32.4823                41.3618

                    61                     62                     63
                     A                      A                      A
 Frequencies --  3048.7063              3052.5105              3065.5323
 Red. masses --     1.0372                 1.0417                 1.0650
 Frc consts  --     5.6798                 5.7186                 5.8969
 IR Inten    --    55.6597                10.1317                36.7722

                    64                     65                     66
                     A                      A                      A
 Frequencies --  3088.2211              3101.7394              3114.6876
 Red. masses --     1.0612                 1.1060                 1.0989
 Frc consts  --     5.9633                 6.2690                 6.2809
 IR Inten    --    22.1544                30.1350                10.5919

                    67                     68                     69
                     A                      A                      A
 Frequencies --  3115.0273              3120.7696              3139.7554
 Red. masses --     1.1017                 1.0956                 1.1066
 Frc consts  --     6.2986                 6.2868                 6.4275
 IR Inten    --    23.5434                11.4150                28.5520

                    70                     71                     72
                     A                      A                      A
 Frequencies --  3175.3318              3176.4974              3623.9802
 Red. masses --     1.0999                 1.0984                 1.0771
 Frc consts  --     6.5339                 6.5300                 8.3344
 IR Inten    --     8.6677                 0.7373                17.2542

 - Thermochemistry -
 -------------------
 Temperature   298.150 Kelvin.  Pressure   1.00000 Atm.
 Atom     1 has atomic number  6 and mass  12.00000

 Molecular mass:   170.10553 amu.
 Principal axes and moments of inertia in atomic units:
                           1         2         3
     Eigenvalues --  1392.584542441.244213255.83026
           X            0.99902  -0.04430  -0.00109
           Y            0.04431   0.99896   0.01116
           Z            0.00059  -0.01120   0.99994
 This molecule is an asymmetric top.
 Rotational symmetry number  1.
 Warning -- assumption of classical behavior for rotation
           may cause significant error
 Rotational temperatures (Kelvin)      0.06220     0.03548     0.02660
 Rotational constants (GHZ):           1.29597     0.73927     0.55431
 Zero-point vibrational energy     586465.6 (Joules/Mol)
                                  140.16864 (Kcal/Mol)
 Warning -- explicit consideration of  18 degrees of freedom as
           vibrations may cause significant error
 Vibrational temperatures:     27.20    67.69    96.81   109.30   170.44
          (Kelvin)            185.88   218.98   259.96   322.15   354.57
                              410.74   475.38   526.55   572.87   663.89
                              772.80   843.06   859.44   903.69  1020.69
                             1095.82  1224.51  1261.13  1270.59  1325.78
                             1339.14  1383.23  1441.23  1488.27  1529.10
                             1541.68  1572.94  1619.04  1670.95  1694.81
                             1721.01  1747.30  1776.93  1777.69  1830.74
                             1877.99  1927.08  1978.56  1997.94  2013.75
                             2025.15  2073.65  2101.21  2159.41  2180.60
                             2183.87  2187.06  2195.66  2201.16  2231.13
                             2273.15  2542.57  2575.25  4369.49  4383.94
                             4386.40  4391.88  4410.61  4443.26  4462.71
                             4481.34  4481.82  4490.09  4517.40  4568.59
                             4570.27  5214.09

 Zero-point correction=                           0.223373 (Hartree/Particle)
 Thermal correction to Energy=                    0.236468
 Thermal correction to Enthalpy=                  0.237413
 Thermal correction to Gibbs Free Energy=         0.182040
 Sum of electronic and zero-point Energies=           -573.037515
 Sum of electronic and thermal Energies=              -573.024420
 Sum of electronic and thermal Enthalpies=            -573.023475
 Sum of electronic and thermal Free Energies=         -573.078848

                     E (Thermal)             CV                S
                      KCal/Mol        Cal/Mol-Kelvin    Cal/Mol-Kelvin
 Total                  148.386             46.219            116.542
 Electronic               0.000              0.000              0.000
 Translational            0.889              2.981             41.302
 Rotational               0.889              2.981             30.782
 Vibrational            146.609             40.257             44.458
 Vibration     1          0.593              1.986              6.746
 Vibration     2          0.595              1.979              4.938
 Vibration     3          0.598              1.970              4.231
 Vibration     4          0.599              1.965              3.992
 Vibration     5          0.609              1.934              3.125
 Vibration     6          0.612              1.924              2.958
 Vibration     7          0.619              1.900              2.645
 Vibration     8          0.630              1.866              2.321
 Vibration     9          0.649              1.805              1.927
 Vibration    10          0.661              1.769              1.756
 Vibration    11          0.683              1.701              1.501
 Vibration    12          0.713              1.615              1.258
 Vibration    13          0.739              1.542              1.097
 Vibration    14          0.764              1.474              0.969
 Vibration    15          0.819              1.336              0.762
 Vibration    16          0.892              1.168              0.572
 Vibration    17          0.943              1.062              0.474
 Vibration    18          0.955              1.037              0.454

 Optimization completed.
    -- Stationary point found.
 Normal termination of Gaussian 09 at Sat Feb 17 22:43:42 2018.
