 Gaussian 09, Revision C.01,
 Gaussian 09:  AM64L-G09RevC.01 23-Sep-2011

 ---------------------------------------------------------
 #B3LYP/6-31G* Integral=(Grid=UltraFine) freq Opt pop=none
 ---------------------------------------------------------

 99/9=1/99;
 -----------------------------
 Optimization for frag54-conf0
 -----------------------------
 Charge =  0 Multiplicity = 1

 SCF Done:  E(RB3LYP) =  -594.095242722     A.U. after   15 cycles
 SCF Done:  E(RB3LYP) =  -594.097010152     A.U. after   12 cycles
 SCF Done:  E(RB3LYP) =  -594.097140057     A.U. after   10 cycles
 SCF Done:  E(RB3LYP) =  -594.097139383     A.U. after   10 cycles
 SCF Done:  E(RB3LYP) =  -594.097174559     A.U. after   10 cycles
 SCF Done:  E(RB3LYP) =  -594.097213543     A.U. after   10 cycles
 SCF Done:  E(RB3LYP) =  -594.097334381     A.U. after   14 cycles
 SCF Done:  E(RB3LYP) =  -594.097426870     A.U. after   11 cycles
 SCF Done:  E(RB3LYP) =  -594.097633594     A.U. after   15 cycles
 SCF Done:  E(RB3LYP) =  -594.097731693     A.U. after   12 cycles
 SCF Done:  E(RB3LYP) =  -594.098644499     A.U. after   15 cycles
 SCF Done:  E(RB3LYP) =  -594.098815329     A.U. after   15 cycles
 SCF Done:  E(RB3LYP) =  -594.097955303     A.U. after   15 cycles
 SCF Done:  E(RB3LYP) =  -594.098908417     A.U. after   15 cycles
 SCF Done:  E(RB3LYP) =  -594.098932700     A.U. after   11 cycles
 SCF Done:  E(RB3LYP) =  -594.098933152     A.U. after   11 cycles
 SCF Done:  E(RB3LYP) =  -594.098937964     A.U. after   10 cycles
 SCF Done:  E(RB3LYP) =  -594.098938354     A.U. after    9 cycles
 SCF Done:  E(RB3LYP) =  -594.098938417     A.U. after    8 cycles
 Optimization completed.
    -- Stationary point found.
 Normal termination of Gaussian 09 at Fri Feb 16 22:53:32 2018.

 --------------------------------------------------------------------
 #N Geom=AllCheck Guess=TCheck SCRF=Check GenChk RB3LYP/6-31G(d) Freq
 --------------------------------------------------------------------

 Structure from the checkpoint file:  frag54-conf0.chk
 -----------------------------
 Optimization for frag54-conf0
 -----------------------------
 Charge =  0 Multiplicity = 1

                         Standard orientation:
 ---------------------------------------------------------------------
 Center     Atomic      Atomic             Coordinates (Angstroms)
 Number     Number       Type             X           Y           Z
 ---------------------------------------------------------------------
      1          6           0       -1.110960    1.882981    0.035567
      2          6           0        0.050877    1.225689   -0.351651
      3          6           0       -2.313429    1.187640    0.214384
      4          6           0       -1.168144   -0.860163   -0.392971
      5          6           0        0.024020   -0.162965   -0.568219
      6          6           0       -2.340150   -0.192721   -0.003292
      7          6           0        3.346412   -0.078816    0.141213
      8          6           0        4.240669   -0.216018    1.365326
      9          6           0       -4.665253   -0.366303    0.518054
     10          6           0        1.289968   -0.894043   -0.976852
     11          7           0        2.295463   -0.954045    0.081609
     12          8           0        3.568871    0.754647   -0.730213
     13          8           0       -3.446823   -0.982887    0.135869
     14          1           0       -1.095008    2.957574    0.198829
     15          1           0        0.978742    1.771522   -0.495416
     16          1           0       -3.205477    1.725643    0.514105
     17          1           0       -1.220642   -1.933146   -0.558542
     18          1           0        5.277026   -0.319101    1.031230
     19          1           0        4.177919    0.704907    1.954305
     20          1           0        3.986339   -1.065411    2.007234
     21          1           0       -5.405360   -1.167479    0.563844
     22          1           0       -4.987550    0.382904   -0.217355
     23          1           0       -4.585991    0.110110    1.504477
     24          1           0        1.051339   -1.916397   -1.290706
     25          1           0        1.773448   -0.384624   -1.814201
     26          1           0        2.086527   -1.513953    0.896347
 ---------------------------------------------------------------------

 SCF Done:  E(RB3LYP) =  -594.098938417     A.U. after    1 cycles

 Isotropic polarizability for W=    0.000000      115.40 Bohr**3.
 End of Minotr Frequency-dependent properties file   721 does not exist.

                     1                      2                      3
                     A                      A                      A
 Frequencies --    22.9120                41.9358                51.5872
 Red. masses --     4.1050                 1.8256                 2.9430
 Frc consts  --     0.0013                 0.0019                 0.0046
 IR Inten    --     1.0307                 0.9194                13.2197

                     4                      5                      6
                     A                      A                      A
 Frequencies --    67.2625                88.5340               174.0147
 Red. masses --     2.0911                 3.0465                 5.0431
 Frc consts  --     0.0056                 0.0141                 0.0900
 IR Inten    --     1.8582                 5.6959                 0.7785

                     7                      8                      9
                     A                      A                      A
 Frequencies --   187.0021               215.6751               268.3078
 Red. masses --     4.3824                 1.8392                 3.1264
 Frc consts  --     0.0903                 0.0504                 0.1326
 IR Inten    --     2.8859                 0.3854                 7.5346

                    10                     11                     12
                     A                      A                      A
 Frequencies --   279.5009               295.9745               341.9698
 Red. masses --     1.7095                 3.9259                 2.2468
 Frc consts  --     0.0787                 0.2026                 0.1548
 IR Inten    --     0.6437                 0.7648                 0.7628

                    13                     14                     15
                     A                      A                      A
 Frequencies --   438.5209               453.7506               463.7663
 Red. masses --     3.2568                 2.8784                 1.4576
 Frc consts  --     0.3690                 0.3492                 0.1847
 IR Inten    --     5.0741                19.9482                83.2068

                    16                     17                     18
                     A                      A                      A
 Frequencies --   485.7160               542.4407               579.6328
 Red. masses --     3.3253                 4.1439                 4.7085
 Frc consts  --     0.4622                 0.7184                 0.9320
 IR Inten    --    11.9767                 9.3337                13.5171

                    19                     20                     21
                     A                      A                      A
 Frequencies --   617.9513               626.4938               666.6700
 Red. masses --     3.8751                 2.6093                 3.7023
 Frc consts  --     0.8719                 0.6034                 0.9695
 IR Inten    --     1.4763                 6.0142                 0.8057

                    22                     23                     24
                     A                      A                      A
 Frequencies --   716.6794               758.5519               803.0986
 Red. masses --     2.7430                 3.9696                 1.5207
 Frc consts  --     0.8301                 1.3458                 0.5779
 IR Inten    --    10.9961                17.9178                30.5059

                    25                     26                     27
                     A                      A                      A
 Frequencies --   860.9504               890.3491               897.7772
 Red. masses --     2.6043                 1.5102                 1.3884
 Frc consts  --     1.1373                 0.7053                 0.6593
 IR Inten    --     4.8761                13.1867                 1.6899

                    28                     29                     30
                     A                      A                      A
 Frequencies --   925.3731               978.5372              1000.4319
 Red. masses --     3.8673                 1.2630                 1.6816
 Frc consts  --     1.9512                 0.7125                 0.9916
 IR Inten    --    10.1871                 0.9760                 4.7700

                    31                     32                     33
                     A                      A                      A
 Frequencies --  1012.9081              1041.8519              1067.4056
 Red. masses --     5.9645                 2.6315                 1.7042
 Frc consts  --     3.6055                 1.6829                 1.1440
 IR Inten    --     0.6743                 3.0551                 9.1942

                    34                     35                     36
                     A                      A                      A
 Frequencies --  1094.1944              1102.4412              1129.5133
 Red. masses --     3.3248                 3.0614                 1.6494
 Frc consts  --     2.3453                 2.1922                 1.2398
 IR Inten    --    76.4352                 5.6752                 3.9386

                    37                     38                     39
                     A                      A                      A
 Frequencies --  1185.3678              1189.7452              1208.3580
 Red. masses --     1.2709                 1.8350                 1.1658
 Frc consts  --     1.0521                 1.5304                 1.0029
 IR Inten    --     0.7522                46.8177                 0.1926

                    40                     41                     42
                     A                      A                      A
 Frequencies --  1226.2826              1264.8914              1286.9060
 Red. masses --     1.4607                 1.4741                 2.1891
 Frc consts  --     1.2942                 1.3896                 2.1361
 IR Inten    --     7.8396                 4.9795               239.4262

                    43                     44                     45
                     A                      A                      A
 Frequencies --  1311.7437              1345.6235              1374.1242
 Red. masses --     2.9183                 1.3738                 4.0090
 Frc consts  --     2.9585                 1.4657                 4.4600
 IR Inten    --    96.7958                44.2767                37.3623

                    46                     47                     48
                     A                      A                      A
 Frequencies --  1398.2209              1425.6449              1492.4861
 Red. masses --     1.3448                 1.2632                 1.6120
 Frc consts  --     1.5490                 1.5127                 2.1157
 IR Inten    --    18.2448                22.6713                83.5040

                    49                     50                     51
                     A                      A                      A
 Frequencies --  1500.5578              1503.5103              1506.9469
 Red. masses --     1.0585                 1.1223                 1.7391
 Frc consts  --     1.4043                 1.4948                 2.3269
 IR Inten    --    12.4832                 4.9477                18.8397

                    52                     53                     54
                     A                      A                      A
 Frequencies --  1515.7845              1520.6340              1536.4547
 Red. masses --     1.0689                 1.0482                 1.1032
 Frc consts  --     1.4470                 1.4281                 1.5344
 IR Inten    --    12.8893                 5.2115                27.3679

                    55                     56                     57
                     A                      A                      A
 Frequencies --  1540.7508              1557.3316              1643.3565
 Red. masses --     2.1737                 1.8772                 5.5901
 Frc consts  --     3.0403                 2.6825                 8.8948
 IR Inten    --    37.7432               187.9877                54.7442

                    58                     59                     60
                     A                      A                      A
 Frequencies --  1670.7899              1778.6548              3024.0409
 Red. masses --     5.8901                 8.9839                 1.0348
 Frc consts  --     9.6876                16.7455                 5.5754
 IR Inten    --    78.5395               212.1347                56.2733

                    61                     62                     63
                     A                      A                      A
 Frequencies --  3063.4791              3068.4127              3082.3293
 Red. masses --     1.0358                 1.0658                 1.1066
 Frc consts  --     5.7273                 5.9120                 6.1946
 IR Inten    --     8.7611                34.0870                44.6917

                    64                     65                     66
                     A                      A                      A
 Frequencies --  3134.8818              3135.6242              3145.5747
 Red. masses --     1.1007                 1.1009                 1.1020
 Frc consts  --     6.3730                 6.3777                 6.4241
 IR Inten    --     2.3836                14.8381                11.1020

                    67                     68                     69
                     A                      A                      A
 Frequencies --  3155.6705              3187.0884              3194.1300
 Red. masses --     1.0997                 1.0876                 1.0902
 Frc consts  --     6.4520                 6.5090                 6.5536
 IR Inten    --    27.6103                13.5699                 6.4259

                    70                     71                     72
                     A                      A                      A
 Frequencies --  3211.2204              3226.2619              3620.9045
 Red. masses --     1.0933                 1.0919                 1.0775
 Frc consts  --     6.6426                 6.6964                 8.3233
 IR Inten    --     4.2716                12.8497                14.6031

 - Thermochemistry -
 -------------------
 Temperature   298.150 Kelvin.  Pressure   1.00000 Atm.
 Atom     1 has atomic number  6 and mass  12.00000

 Molecular mass:   179.09463 amu.
 Principal axes and moments of inertia in atomic units:
                           1         2         3
     Eigenvalues --   844.658175329.179465658.92170
           X            0.99995  -0.00769   0.00600
           Y            0.00758   0.99979   0.01879
           Z           -0.00614  -0.01874   0.99981
 This molecule is an asymmetric top.
 Rotational symmetry number  1.
 Warning -- assumption of classical behavior for rotation
           may cause significant error
 Rotational temperatures (Kelvin)      0.10254     0.01625     0.01531
 Rotational constants (GHZ):           2.13665     0.33865     0.31892
 Zero-point vibrational energy     570759.1 (Joules/Mol)
                                  136.41469 (Kcal/Mol)
 Warning -- explicit consideration of  19 degrees of freedom as
           vibrations may cause significant error
 Vibrational temperatures:     32.97    60.34    74.22    96.78   127.38
          (Kelvin)            250.37   269.05   310.31   386.03   402.14
                              425.84   492.02   630.93   652.85   667.26
                              698.84   780.45   833.96   889.09   901.38
                              959.19  1031.14  1091.39  1155.48  1238.71
                             1281.01  1291.70  1331.40  1407.89  1439.40
                             1457.35  1498.99  1535.76  1574.30  1586.17
                             1625.12  1705.48  1711.78  1738.56  1764.34
                             1819.89  1851.57  1887.30  1936.05  1977.06
                             2011.73  2051.18  2147.35  2158.97  2163.21
                             2168.16  2180.87  2187.85  2210.61  2216.79
                             2240.65  2364.42  2403.89  2559.08  4350.91
                             4407.66  4414.76  4434.78  4510.39  4511.46
                             4525.77  4540.30  4585.50  4595.63  4620.22
                             4641.87  5209.67

 Zero-point correction=                           0.217391 (Hartree/Particle)
 Thermal correction to Energy=                    0.230512
 Thermal correction to Enthalpy=                  0.231456
 Thermal correction to Gibbs Free Energy=         0.175695
 Sum of electronic and zero-point Energies=           -593.881548
 Sum of electronic and thermal Energies=              -593.868426
 Sum of electronic and thermal Enthalpies=            -593.867482
 Sum of electronic and thermal Free Energies=         -593.923243

                     E (Thermal)             CV                S
                      KCal/Mol        Cal/Mol-Kelvin    Cal/Mol-Kelvin
 Total                  144.649             47.818            117.359
 Electronic               0.000              0.000              0.000
 Translational            0.889              2.981             41.455
 Rotational               0.889              2.981             31.611
 Vibrational            142.871             41.857             44.293
 Vibration     1          0.593              1.985              6.364
 Vibration     2          0.595              1.980              5.165
 Vibration     3          0.596              1.977              4.756
 Vibration     4          0.598              1.970              4.232
 Vibration     5          0.601              1.957              3.692
 Vibration     6          0.627              1.874              2.392
 Vibration     7          0.632              1.858              2.257
 Vibration     8          0.645              1.817              1.995
 Vibration     9          0.673              1.731              1.607
 Vibration    10          0.680              1.711              1.537
 Vibration    11          0.690              1.681              1.440
 Vibration    12          0.721              1.592              1.203
 Vibration    13          0.799              1.386              0.831
 Vibration    14          0.812              1.353              0.785
 Vibration    15          0.821              1.330              0.755
 Vibration    16          0.842              1.282              0.695
 Vibration    17          0.898              1.156              0.560
 Vibration    18          0.936              1.075              0.486
 Vibration    19          0.978              0.994              0.420

 Optimization completed.
    -- Stationary point found.
 Normal termination of Gaussian 09 at Fri Feb 16 23:22:31 2018.
