 Gaussian 09, Revision C.01,
 Gaussian 09:  AM64L-G09RevC.01 23-Sep-2011

 ----------------------------------------------------------------------
 #HF/6-31G* Geom=AllCheck Guess=Read Pop=(MK,ReadRadii) Integral=(Grid=
 UltraFine) iop(6/33=2)
 ----------------------------------------------------------------------

 Structure from the checkpoint file:  frag54-conf0.chk
 -----------------------------
 Optimization for frag54-conf0
 -----------------------------
 Charge =  0 Multiplicity = 1

                         Standard orientation:
 ---------------------------------------------------------------------
 Center     Atomic      Atomic             Coordinates (Angstroms)
 Number     Number       Type             X           Y           Z
 ---------------------------------------------------------------------
      1          6           0       -1.110960    1.882981    0.035567
      2          6           0        0.050877    1.225689   -0.351651
      3          6           0       -2.313429    1.187640    0.214384
      4          6           0       -1.168144   -0.860163   -0.392971
      5          6           0        0.024020   -0.162965   -0.568219
      6          6           0       -2.340150   -0.192721   -0.003292
      7          6           0        3.346412   -0.078816    0.141213
      8          6           0        4.240669   -0.216018    1.365326
      9          6           0       -4.665253   -0.366303    0.518054
     10          6           0        1.289968   -0.894043   -0.976852
     11          7           0        2.295463   -0.954045    0.081609
     12          8           0        3.568871    0.754647   -0.730213
     13          8           0       -3.446823   -0.982887    0.135869
     14          1           0       -1.095008    2.957574    0.198829
     15          1           0        0.978742    1.771522   -0.495416
     16          1           0       -3.205477    1.725643    0.514105
     17          1           0       -1.220642   -1.933146   -0.558542
     18          1           0        5.277026   -0.319101    1.031230
     19          1           0        4.177919    0.704907    1.954305
     20          1           0        3.986339   -1.065411    2.007234
     21          1           0       -5.405360   -1.167479    0.563844
     22          1           0       -4.987550    0.382904   -0.217355
     23          1           0       -4.585991    0.110110    1.504477
     24          1           0        1.051339   -1.916397   -1.290706
     25          1           0        1.773448   -0.384624   -1.814201
     26          1           0        2.086527   -1.513953    0.896347
 ---------------------------------------------------------------------

 SCF Done:  E(RHF) =  -590.430760862     A.U. after   14 cycles

 The electronic state is 1-A.
 Alpha  occ. eigenvalues --  -20.59013 -20.51945 -15.58932 -11.35369 -11.30099
 Alpha  occ. eigenvalues --  -11.28785 -11.26829 -11.24362 -11.23902 -11.23856
 Alpha  occ. eigenvalues --  -11.23065 -11.22757 -11.22154  -1.40590  -1.37104
 Alpha  occ. eigenvalues --   -1.22731  -1.14374  -1.04228  -1.01727  -0.99887
 Alpha  occ. eigenvalues --   -0.94007  -0.92074  -0.82505  -0.79421  -0.78211
 Alpha  occ. eigenvalues --   -0.71345  -0.68354  -0.66263  -0.65860  -0.65182
 Alpha  occ. eigenvalues --   -0.64660  -0.62423  -0.59875  -0.58920  -0.57716
 Alpha  occ. eigenvalues --   -0.57239  -0.55638  -0.53923  -0.52623  -0.51988
 Alpha  occ. eigenvalues --   -0.50629  -0.50124  -0.47726  -0.45959  -0.41690
 Alpha  occ. eigenvalues --   -0.38761  -0.33204  -0.30520
 Alpha virt. eigenvalues --    0.13957   0.15373   0.19869   0.21911   0.23798
 Alpha virt. eigenvalues --    0.25856   0.26592   0.28220   0.30101   0.30518
 Alpha virt. eigenvalues --    0.31501   0.31774   0.32183   0.33159   0.33966

 Mulliken atomic charges:
              1
     1  C   -0.181734
     2  C   -0.247643
     3  C   -0.290999
     4  C   -0.288643
     5  C    0.042874
     6  C    0.441253
     7  C    0.763677
     8  C   -0.576082
     9  C   -0.185609
    10  C   -0.166363
    11  N   -0.790061
    12  O   -0.632153
    13  O   -0.661728
    14  H    0.205641
    15  H    0.238080
    16  H    0.206985
    17  H    0.211064
    18  H    0.210372
    19  H    0.205962
    20  H    0.167945
    21  H    0.191413
    22  H    0.163667
    23  H    0.161774
    24  H    0.187685
    25  H    0.239036
    26  H    0.383586
 Sum of Mulliken atomic charges =   0.00000

 Dipole moment (field-independent basis, Debye):
    X=             -2.1259    Y=             -1.3936    Z=              2.9459  Tot=              3.8910
 Quadrupole moment (field-independent basis, Debye-Ang):
   XX=            -71.0888   YY=            -74.7540   ZZ=            -78.0946
   XY=            -11.1074   XZ=              6.6249   YZ=              1.8001

 Normal termination of Gaussian 09 at Sat Feb 17 21:06:42 2018.
