 Gaussian 09, Revision C.01,
 Gaussian 09:  AM64L-G09RevC.01 23-Sep-2011

 ----------------------------------------------------------------------
 #HF/6-31G* Geom=AllCheck Guess=Read Pop=(MK,ReadRadii) Integral=(Grid=
 UltraFine) iop(6/33=2)
 ----------------------------------------------------------------------

 Structure from the checkpoint file:  frag48-conf0.chk
 -----------------------------
 Optimization for frag48-conf0
 -----------------------------
 Charge =  0 Multiplicity = 1

                         Standard orientation:
 ---------------------------------------------------------------------
 Center     Atomic      Atomic             Coordinates (Angstroms)
 Number     Number       Type             X           Y           Z
 ---------------------------------------------------------------------
      1          6           0        4.548275   -0.560521   -0.151842
      2          7           0        3.319428   -0.079820    0.500200
      3          6           0        3.501455    1.153496    1.280187
      4         16           0        1.955341   -0.070208   -0.496599
      5          8           0        1.675506    1.245959   -1.071981
      6          8           0        2.060159   -1.240776   -1.368150
      7          7           0        0.811762   -0.309694    0.753523
      8          6           0       -0.584652   -0.199499    0.467161
      9          6           0       -1.421412   -1.301205    0.679927
     10          6           0       -2.797755   -1.193557    0.489961
     11          6           0       -3.331798    0.018636    0.058594
     12         17           0       -5.065884    0.160908   -0.196074
     13          6           0       -2.508649    1.120934   -0.170967
     14          6           0       -1.136909    1.016959    0.045658
     15          1           0        5.276698   -0.767771    0.637732
     16          1           0        4.977096    0.179749   -0.842525
     17          1           0        4.337695   -1.481606   -0.693808
     18          1           0        4.249808    0.950138    2.052023
     19          1           0        2.562060    1.419328    1.767183
     20          1           0        3.839926    1.994293    0.660018
     21          1           0        1.049618   -1.185332    1.215302
     22          1           0       -0.997827   -2.251545    0.995491
     23          1           0       -3.445038   -2.046646    0.661940
     24          1           0       -2.938490    2.059702   -0.503295
     25          1           0       -0.491964    1.871263   -0.118315
 ---------------------------------------------------------------------

 SCF Done:  E(RHF) =  -1424.86681324     A.U. after   13 cycles

 The electronic state is 1-A.
 Alpha  occ. eigenvalues -- -104.82788 -92.24110 -20.57133 -20.57078 -15.62870
 Alpha  occ. eigenvalues --  -15.62293 -11.30954 -11.30401 -11.27904 -11.27815
 Alpha  occ. eigenvalues --  -11.26249 -11.26101 -11.25959 -11.25331 -10.56088
 Alpha  occ. eigenvalues --   -9.20860  -8.03026  -8.02695  -8.02690  -6.89446
 Alpha  occ. eigenvalues --   -6.89427  -6.89423  -1.47464  -1.34889  -1.27025
 Alpha  occ. eigenvalues --   -1.25027  -1.18417  -1.11116  -1.03878  -1.00313
 Alpha  occ. eigenvalues --   -0.98551  -0.94349  -0.86333  -0.83573  -0.80638
 Alpha  occ. eigenvalues --   -0.73983  -0.73026  -0.70470  -0.67580  -0.66252
 Alpha  occ. eigenvalues --   -0.65069  -0.64453  -0.62688  -0.61348  -0.60709
 Alpha  occ. eigenvalues --   -0.58611  -0.57654  -0.55670  -0.54640  -0.54275
 Alpha  occ. eigenvalues --   -0.52897  -0.51930  -0.51674  -0.49612  -0.49185
 Alpha  occ. eigenvalues --   -0.47316  -0.45440  -0.44291  -0.41554  -0.35589
 Alpha  occ. eigenvalues --   -0.32502
 Alpha virt. eigenvalues --    0.11915   0.12123   0.18647   0.20636   0.22186
 Alpha virt. eigenvalues --    0.24551   0.24812   0.26352   0.27136   0.27979
 Alpha virt. eigenvalues --    0.28542   0.28951   0.30125   0.31425   0.32032

 Mulliken atomic charges:
              1
     1  C   -0.316978
     2  N   -0.742548
     3  C   -0.314148
     4  S    1.759489
     5  O   -0.687342
     6  O   -0.670121
     7  N   -0.929713
     8  C    0.258811
     9  C   -0.228103
    10  C   -0.177129
    11  C   -0.140069
    12  Cl  -0.002952
    13  C   -0.180181
    14  C   -0.190727
    15  H    0.187711
    16  H    0.176396
    17  H    0.236030
    18  H    0.188963
    19  H    0.215618
    20  H    0.188660
    21  H    0.408921
    22  H    0.217402
    23  H    0.236967
    24  H    0.238651
    25  H    0.266394
 Sum of Mulliken atomic charges =   0.00000

 Dipole moment (field-independent basis, Debye):
    X=              3.2496    Y=             -0.5865    Z=              3.9566  Tot=              5.1535
 Quadrupole moment (field-independent basis, Debye-Ang):
   XX=            -89.5963   YY=            -93.1988   ZZ=           -102.6978
   XY=              2.2252   XZ=              6.8531   YZ=             -3.2424

 Normal termination of Gaussian 09 at Fri Aug 24 15:36:47 2018.
