 Gaussian 09, Revision C.01,
 Gaussian 09:  AM64L-G09RevC.01 23-Sep-2011

 ---------------------------------------------------------
 #B3LYP/6-31G* Integral=(Grid=UltraFine) freq Opt pop=none
 ---------------------------------------------------------

 99/9=1/99;
 -----------------------------
 Optimization for frag48-conf0
 -----------------------------
 Charge =  0 Multiplicity = 1

 SCF Done:  E(RB3LYP) =  -1429.72017869     A.U. after   14 cycles
 SCF Done:  E(RB3LYP) =  -1429.72790830     A.U. after   13 cycles
 SCF Done:  E(RB3LYP) =  -1429.73039560     A.U. after   12 cycles
 SCF Done:  E(RB3LYP) =  -1429.73148213     A.U. after   12 cycles
 SCF Done:  E(RB3LYP) =  -1429.73180061     A.U. after   12 cycles
 SCF Done:  E(RB3LYP) =  -1429.73196255     A.U. after   12 cycles
 SCF Done:  E(RB3LYP) =  -1429.73199414     A.U. after   12 cycles
 SCF Done:  E(RB3LYP) =  -1429.73200909     A.U. after   12 cycles
 SCF Done:  E(RB3LYP) =  -1429.73201462     A.U. after   11 cycles
 SCF Done:  E(RB3LYP) =  -1429.73201725     A.U. after    9 cycles
 SCF Done:  E(RB3LYP) =  -1429.73201786     A.U. after    8 cycles
 SCF Done:  E(RB3LYP) =  -1429.73201795     A.U. after    8 cycles
 Optimization completed.
    -- Stationary point found.
 Normal termination of Gaussian 09 at Fri Aug 24 15:12:37 2018.

 --------------------------------------------------------------------
 #N Geom=AllCheck Guess=TCheck SCRF=Check GenChk RB3LYP/6-31G(d) Freq
 --------------------------------------------------------------------

 Structure from the checkpoint file:  frag48-conf0.chk
 -----------------------------
 Optimization for frag48-conf0
 -----------------------------
 Charge =  0 Multiplicity = 1

                         Standard orientation:
 ---------------------------------------------------------------------
 Center     Atomic      Atomic             Coordinates (Angstroms)
 Number     Number       Type             X           Y           Z
 ---------------------------------------------------------------------
      1          6           0        4.548275   -0.560521   -0.151842
      2          7           0        3.319428   -0.079820    0.500200
      3          6           0        3.501455    1.153496    1.280187
      4         16           0        1.955341   -0.070208   -0.496599
      5          8           0        1.675506    1.245959   -1.071981
      6          8           0        2.060159   -1.240776   -1.368150
      7          7           0        0.811762   -0.309694    0.753523
      8          6           0       -0.584652   -0.199499    0.467161
      9          6           0       -1.421412   -1.301205    0.679927
     10          6           0       -2.797755   -1.193557    0.489961
     11          6           0       -3.331798    0.018636    0.058594
     12         17           0       -5.065884    0.160908   -0.196074
     13          6           0       -2.508649    1.120934   -0.170967
     14          6           0       -1.136909    1.016959    0.045658
     15          1           0        5.276698   -0.767771    0.637732
     16          1           0        4.977096    0.179749   -0.842525
     17          1           0        4.337695   -1.481606   -0.693808
     18          1           0        4.249808    0.950138    2.052023
     19          1           0        2.562060    1.419328    1.767183
     20          1           0        3.839926    1.994293    0.660018
     21          1           0        1.049618   -1.185332    1.215302
     22          1           0       -0.997827   -2.251545    0.995491
     23          1           0       -3.445038   -2.046646    0.661940
     24          1           0       -2.938490    2.059702   -0.503295
     25          1           0       -0.491964    1.871263   -0.118315
 ---------------------------------------------------------------------

 SCF Done:  E(RB3LYP) =  -1429.73201795     A.U. after    1 cycles

 Isotropic polarizability for W=    0.000000      131.04 Bohr**3.
 End of Minotr Frequency-dependent properties file   721 does not exist.

                     1                      2                      3
                     A                      A                      A
 Frequencies --    24.8172                32.9557                64.5700
 Red. masses --     4.8659                 5.2924                 3.7357
 Frc consts  --     0.0018                 0.0034                 0.0092
 IR Inten    --     1.5204                 0.0955                 0.3184

                     4                      5                      6
                     A                      A                      A
 Frequencies --    99.9751               125.9718               168.6533
 Red. masses --     5.0238                 5.0225                 4.0166
 Frc consts  --     0.0296                 0.0470                 0.0673
 IR Inten    --     3.1088                 2.5531                 2.3644

                     7                      8                      9
                     A                      A                      A
 Frequencies --   202.3340               208.6414               233.8493
 Red. masses --     1.3890                 1.4488                 4.4284
 Frc consts  --     0.0335                 0.0372                 0.1427
 IR Inten    --     0.7415                 1.1100                 0.9551

                    10                     11                     12
                     A                      A                      A
 Frequencies --   245.6570               302.6059               322.3876
 Red. masses --     2.4579                 6.0259                 4.0503
 Frc consts  --     0.0874                 0.3251                 0.2480
 IR Inten    --     3.0578                 0.6041                21.5465

                    13                     14                     15
                     A                      A                      A
 Frequencies --   331.0154               357.8123               399.4137
 Red. masses --     5.1876                 3.0534                 4.3481
 Frc consts  --     0.3349                 0.2303                 0.4087
 IR Inten    --     0.3511                 2.3229                 3.9130

                    16                     17                     18
                     A                      A                      A
 Frequencies --   421.6791               435.6879               468.3080
 Red. masses --     3.1835                 5.9869                 6.3076
 Frc consts  --     0.3335                 0.6696                 0.8150
 IR Inten    --     2.1710                10.3458                20.0697

                    19                     20                     21
                     A                      A                      A
 Frequencies --   498.4963               503.5424               560.4194
 Red. masses --     4.2112                 3.3521                 4.5167
 Frc consts  --     0.6166                 0.5008                 0.8358
 IR Inten    --    19.0686                11.1561                28.6811

                    22                     23                     24
                     A                      A                      A
 Frequencies --   631.9531               648.1763               675.6393
 Red. masses --     4.8298                 5.9589                 5.4411
 Frc consts  --     1.1364                 1.4750                 1.4634
 IR Inten    --    46.8260                 2.2563                48.7724

                    25                     26                     27
                     A                      A                      A
 Frequencies --   705.4317               729.0499               822.8894
 Red. masses --     3.8301                 5.9238                 1.3144
 Frc consts  --     1.1230                 1.8551                 0.5244
 IR Inten    --    22.9624               211.1023                 9.4669

                    28                     29                     30
                     A                      A                      A
 Frequencies --   835.4212               856.9181               880.5043
 Red. masses --     1.6445                 2.6425                 2.9994
 Frc consts  --     0.6762                 1.1433                 1.3701
 IR Inten    --    70.0513                 2.8608               163.1471

                    31                     32                     33
                     A                      A                      A
 Frequencies --   941.4680               948.7952               965.5822
 Red. masses --     1.3019                 3.2392                 1.3123
 Frc consts  --     0.6799                 1.7181                 0.7209
 IR Inten    --     0.4484               196.0146                 0.7447

                    34                     35                     36
                     A                      A                      A
 Frequencies --  1031.0037              1073.4644              1112.7876
 Red. masses --     3.7759                 1.5861                 2.9471
 Frc consts  --     2.3648                 1.0769                 2.1502
 IR Inten    --    24.2040                14.5069                46.2390

                    37                     38                     39
                     A                      A                      A
 Frequencies --  1129.8433              1134.1329              1142.6893
 Red. masses --     3.7813                 1.5838                 1.3376
 Frc consts  --     2.8440                 1.2003                 1.0290
 IR Inten    --   115.9697                26.8193                 8.6105

                    40                     41                     42
                     A                      A                      A
 Frequencies --  1183.2297              1211.9980              1219.3455
 Red. masses --     1.3747                 1.1686                 3.3226
 Frc consts  --     1.1339                 1.0114                 2.9106
 IR Inten    --     2.3201                 8.4555                38.7244

                    43                     44                     45
                     A                      A                      A
 Frequencies --  1251.7419              1285.5327              1299.6877
 Red. masses --     3.0269                 1.9425                 3.0032
 Frc consts  --     2.7943                 1.8914                 2.9889
 IR Inten    --    63.6160                22.2698                75.9194

                    46                     47                     48
                     A                      A                      A
 Frequencies --  1332.5162              1339.9206              1414.5521
 Red. masses --     3.8455                 2.1818                 1.9474
 Frc consts  --     4.0229                 2.3079                 2.2958
 IR Inten    --    32.3881                81.2681                48.0923

                    49                     50                     51
                     A                      A                      A
 Frequencies --  1461.3428              1483.1053              1487.4751
 Red. masses --     1.1522                 1.8994                 1.1970
 Frc consts  --     1.4497                 2.4615                 1.5604
 IR Inten    --     0.5513                36.6667                 9.0273

                    52                     53                     54
                     A                      A                      A
 Frequencies --  1515.6058              1523.5961              1529.6127
 Red. masses --     1.0483                 1.0473                 1.0576
 Frc consts  --     1.4188                 1.4325                 1.4580
 IR Inten    --     8.2603                 6.2297                25.9043

                    55                     56                     57
                     A                      A                      A
 Frequencies --  1538.7280              1543.1361              1638.1453
 Red. masses --     2.2568                 1.0545                 6.1341
 Frc consts  --     3.1482                 1.4795                 9.6985
 IR Inten    --   132.0543                12.9542                 1.0016

                    58                     59                     60
                     A                      A                      A
 Frequencies --  1653.5596              3029.9935              3041.9150
 Red. masses --     5.7276                 1.0482                 1.0425
 Frc consts  --     9.2270                 5.6697                 5.6835
 IR Inten    --     4.6459                50.4098                50.2505

                    61                     62                     63
                     A                      A                      A
 Frequencies --  3114.6783              3118.2140              3169.8424
 Red. masses --     1.0926                 1.0971                 1.1014
 Frc consts  --     6.2451                 6.2852                 6.5202
 IR Inten    --    19.1902                23.5691                 9.9651

                    64                     65                     66
                     A                      A                      A
 Frequencies --  3187.4090              3190.5376              3223.1101
 Red. masses --     1.0898                 1.0992                 1.0906
 Frc consts  --     6.5232                 6.5924                 6.6750
 IR Inten    --    10.3679                 1.9455                 2.2827

                    67                     68                     69
                     A                      A                      A
 Frequencies --  3226.1112              3249.7106              3530.1527
 Red. masses --     1.0934                 1.0933                 1.0749
 Frc consts  --     6.7049                 6.8024                 7.8922
 IR Inten    --     2.7713                 0.1461                19.6643

 - Thermochemistry -
 -------------------
 Temperature   298.150 Kelvin.  Pressure   1.00000 Atm.
 Atom     1 has atomic number  6 and mass  12.00000

 Molecular mass:   234.02298 amu.
 Principal axes and moments of inertia in atomic units:
                           1         2         3
     Eigenvalues --   993.537808153.286678340.90293
           X            0.99998   0.00380   0.00533
           Y           -0.00380   0.99999  -0.00082
           Z           -0.00533   0.00080   0.99999
 This molecule is an asymmetric top.
 Rotational symmetry number  1.
 Warning -- assumption of classical behavior for rotation
           may cause significant error
 Rotational temperatures (Kelvin)      0.08718     0.01062     0.01038
 Rotational constants (GHZ):           1.81648     0.22135     0.21637
 Zero-point vibrational energy     504040.8 (Joules/Mol)
                                  120.46865 (Kcal/Mol)
 Warning -- explicit consideration of  21 degrees of freedom as
           vibrations may cause significant error
 Vibrational temperatures:     35.71    47.42    92.90   143.84   181.25
          (Kelvin)            242.65   291.11   300.19   336.46   353.45
                              435.38   463.84   476.26   514.81   574.67
                              606.70   626.86   673.79   717.22   724.48
                              806.32   909.24   932.58   972.09  1014.96
                             1048.94  1183.95  1201.98  1232.91  1266.85
                             1354.56  1365.10  1389.26  1483.38  1544.47
                             1601.05  1625.59  1631.76  1644.07  1702.40
                             1743.79  1754.36  1800.98  1849.59  1869.96
                             1917.19  1927.84  2035.22  2102.54  2133.86
                             2140.14  2180.62  2192.11  2200.77  2213.88
                             2220.23  2356.92  2379.10  4359.48  4376.63
                             4481.32  4486.41  4560.69  4585.96  4590.47
                             4637.33  4641.65  4675.60  5079.10

 Zero-point correction=                           0.191979 (Hartree/Particle)
 Thermal correction to Energy=                    0.206127
 Thermal correction to Enthalpy=                  0.207072
 Thermal correction to Gibbs Free Energy=         0.149344
 Sum of electronic and zero-point Energies=          -1429.540039
 Sum of electronic and thermal Energies=             -1429.525891
 Sum of electronic and thermal Enthalpies=           -1429.524946
 Sum of electronic and thermal Free Energies=        -1429.582674

                     E (Thermal)             CV                S
                      KCal/Mol        Cal/Mol-Kelvin    Cal/Mol-Kelvin
 Total                  129.347             52.322            121.499
 Electronic               0.000              0.000              0.000
 Translational            0.889              2.981             42.252
 Rotational               0.889              2.981             32.580
 Vibrational            127.569             46.360             46.666
 Vibration     1          0.593              1.985              6.206
 Vibration     2          0.594              1.983              5.643
 Vibration     3          0.597              1.971              4.312
 Vibration     4          0.604              1.949              3.455
 Vibration     5          0.611              1.927              3.007
 Vibration     6          0.625              1.881              2.450
 Vibration     7          0.639              1.837              2.112
 Vibration     8          0.642              1.828              2.056
 Vibration     9          0.654              1.789              1.849
 Vibration    10          0.660              1.770              1.762
 Vibration    11          0.694              1.669              1.402
 Vibration    12          0.707              1.631              1.298
 Vibration    13          0.713              1.614              1.255
 Vibration    14          0.733              1.559              1.132
 Vibration    15          0.765              1.471              0.965
 Vibration    16          0.784              1.423              0.886
 Vibration    17          0.796              1.392              0.840
 Vibration    18          0.825              1.320              0.742
 Vibration    19          0.854              1.253              0.662
 Vibration    20          0.859              1.242              0.649
 Vibration    21          0.916              1.117              0.523

 Normal termination of Gaussian 09 at Fri Aug 24 15:25:06 2018.
