 Gaussian 09, Revision C.01,
 Gaussian 09:  AM64L-G09RevC.01 23-Sep-2011

 ----------------------------------------------------------------------
 #HF/6-31G* Geom=AllCheck Guess=Read Pop=(MK,ReadRadii) Integral=(Grid=
 UltraFine) iop(6/33=2)
 ----------------------------------------------------------------------

 Structure from the checkpoint file:  frag14-conf1.chk
 -----------------------------
 Optimization for frag14-conf1
 -----------------------------
 Charge =  1 Multiplicity = 1

                         Standard orientation:
 ---------------------------------------------------------------------
 Center     Atomic      Atomic             Coordinates (Angstroms)
 Number     Number       Type             X           Y           Z
 ---------------------------------------------------------------------
      1          6           0       -1.994866   -0.039457   -0.146242
      2          6           0        3.406217   -0.984567    0.162340
      3          6           0        3.380063    0.403009    0.820164
      4          6           0        2.732255   -0.966895   -1.217761
      5          6           0        1.950622    0.966176    0.897649
      6          6           0        1.298363   -0.414712   -1.141496
      7          6           0        1.281518    0.981804   -0.490587
      8          6           0       -2.548807   -2.391198   -0.252800
      9          6           0       -1.024353   -1.631301    1.531872
     10          6           0       -0.089162    1.696619   -0.510491
     11          6           0       -1.228384    1.197102    0.411364
     12          7           0       -1.829522   -1.268319    0.366812
     13          7           0       -2.323485    2.261301    0.335288
     14          8           0       -2.772659    0.227139   -1.076592
     15          1           0        4.439656   -1.337648    0.072464
     16          1           0        2.888630   -1.706065    0.812578
     17          1           0        3.816740    0.360659    1.824504
     18          1           0        4.004232    1.094955    0.237726
     19          1           0        3.321107   -0.341786   -1.903556
     20          1           0        2.718687   -1.973674   -1.650885
     21          1           0        1.367305    0.343825    1.593794
     22          1           0        1.967359    1.979875    1.321519
     23          1           0        0.855995   -0.365380   -2.145044
     24          1           0        0.680735   -1.112592   -0.560894
     25          1           0        1.906806    1.623611   -1.129707
     26          1           0       -1.827737   -3.146855   -0.580430
     27          1           0       -3.117286   -2.027262   -1.105680
     28          1           0       -3.226679   -2.840898    0.480236
     29          1           0       -0.512708   -0.771827    1.959585
     30          1           0       -0.269181   -2.371116    1.247066
     31          1           0       -1.671675   -2.073926    2.296913
     32          1           0        0.099963    2.742677   -0.225627
     33          1           0       -0.480252    1.704965   -1.536065
     34          1           0       -0.918655    1.130187    1.453082
     35          1           0       -1.948734    3.210662    0.246107
     36          1           0       -2.969048    2.233606    1.131882
     37          1           0       -2.853731    1.976534   -0.525605
 ---------------------------------------------------------------------

 SCF Done:  E(RHF) =  -613.499292952     A.U. after   13 cycles

 The electronic state is 1-A.
 Alpha  occ. eigenvalues --  -20.68614 -15.86280 -15.75332 -11.52234 -11.48037
 Alpha  occ. eigenvalues --  -11.40653 -11.39451 -11.38169 -11.36114 -11.34101
 Alpha  occ. eigenvalues --  -11.33470 -11.32150 -11.31925 -11.31571  -1.54727
 Alpha  occ. eigenvalues --   -1.46987  -1.39744  -1.24974  -1.19835  -1.12990
 Alpha  occ. eigenvalues --   -1.11268  -1.11012  -1.08314  -1.03281  -0.95695
 Alpha  occ. eigenvalues --   -0.94596  -0.94049  -0.90149  -0.88691  -0.86510
 Alpha  occ. eigenvalues --   -0.83449  -0.82854  -0.79228  -0.77859  -0.75978
 Alpha  occ. eigenvalues --   -0.74407  -0.72270  -0.71787  -0.71126  -0.69800
 Alpha  occ. eigenvalues --   -0.69442  -0.68441  -0.68259  -0.66841  -0.66067
 Alpha  occ. eigenvalues --   -0.63574  -0.63191  -0.61118  -0.59262  -0.59142
 Alpha  occ. eigenvalues --   -0.58191  -0.55748  -0.54118  -0.53624  -0.51996
 Alpha virt. eigenvalues --    0.00487   0.02564   0.06400   0.07814   0.10316
 Alpha virt. eigenvalues --    0.11059   0.12861   0.13398   0.14889   0.15994
 Alpha virt. eigenvalues --    0.16638   0.17295   0.18293   0.19049   0.20005

 Mulliken atomic charges:
              1
     1  C    0.827925
     2  C   -0.317816
     3  C   -0.318010
     4  C   -0.320801
     5  C   -0.322070
     6  C   -0.325335
     7  C   -0.174679
     8  C   -0.317956
     9  C   -0.310789
    10  C   -0.340531
    11  C   -0.141911
    12  N   -0.660343
    13  N   -0.887035
    14  O   -0.667542
    15  H    0.193746
    16  H    0.148820
    17  H    0.187231
    18  H    0.174059
    19  H    0.173321
    20  H    0.186676
    21  H    0.135742
    22  H    0.170925
    23  H    0.184135
    24  H    0.149030
    25  H    0.196568
    26  H    0.203390
    27  H    0.256856
    28  H    0.201125
    29  H    0.182750
    30  H    0.215384
    31  H    0.218434
    32  H    0.183719
    33  H    0.226073
    34  H    0.260669
    35  H    0.460347
    36  H    0.460467
    37  H    0.507429
 Sum of Mulliken atomic charges =   1.00000

 Dipole moment (field-independent basis, Debye):
    X=             -5.6280    Y=              5.1568    Z=              3.8656  Tot=              8.5563
 Quadrupole moment (field-independent basis, Debye-Ang):
   XX=            -65.1929   YY=            -55.8492   ZZ=            -83.1362
   XY=            -11.7910   XZ=            -10.5126   YZ=              1.8284

 Normal termination of Gaussian 09 at Sat Feb 17 20:58:25 2018.
