 Gaussian 09, Revision C.01,
 Gaussian 09:  AM64L-G09RevC.01 23-Sep-2011

 ---------------------------------------------------------
 #B3LYP/6-31G* Integral=(Grid=UltraFine) freq Opt pop=none
 ---------------------------------------------------------

 99/9=1/99;
 -----------------------------
 Optimization for frag14-conf1
 -----------------------------
 Charge =  1 Multiplicity = 1

 SCF Done:  E(RB3LYP) =  -617.524110949     A.U. after   15 cycles
 SCF Done:  E(RB3LYP) =  -617.532095482     A.U. after   13 cycles
 SCF Done:  E(RB3LYP) =  -617.536276506     A.U. after   15 cycles
 SCF Done:  E(RB3LYP) =  -617.538136912     A.U. after   12 cycles
 SCF Done:  E(RB3LYP) =  -617.540057846     A.U. after   13 cycles
 SCF Done:  E(RB3LYP) =  -617.539589539     A.U. after   12 cycles
 SCF Done:  E(RB3LYP) =  -617.540525552     A.U. after   12 cycles
 SCF Done:  E(RB3LYP) =  -617.540978572     A.U. after   13 cycles
 SCF Done:  E(RB3LYP) =  -617.540164974     A.U. after   13 cycles
 SCF Done:  E(RB3LYP) =  -617.541234176     A.U. after   12 cycles
 SCF Done:  E(RB3LYP) =  -617.541965484     A.U. after   10 cycles
 SCF Done:  E(RB3LYP) =  -617.541977895     A.U. after   10 cycles
 SCF Done:  E(RB3LYP) =  -617.541979911     A.U. after    9 cycles
 SCF Done:  E(RB3LYP) =  -617.541980581     A.U. after    7 cycles
 SCF Done:  E(RB3LYP) =  -617.541980931     A.U. after    7 cycles
 SCF Done:  E(RB3LYP) =  -617.541981214     A.U. after    7 cycles
 SCF Done:  E(RB3LYP) =  -617.541981566     A.U. after    7 cycles
 SCF Done:  E(RB3LYP) =  -617.541981665     A.U. after    7 cycles
 SCF Done:  E(RB3LYP) =  -617.541981649     A.U. after    6 cycles
 Optimization completed.
    -- Stationary point found.
 Normal termination of Gaussian 09 at Fri Feb 16 19:32:28 2018.

 --------------------------------------------------------------------
 #N Geom=AllCheck Guess=TCheck SCRF=Check GenChk RB3LYP/6-31G(d) Freq
 --------------------------------------------------------------------

 Structure from the checkpoint file:  frag14-conf1.chk
 -----------------------------
 Optimization for frag14-conf1
 -----------------------------
 Charge =  1 Multiplicity = 1

                         Standard orientation:
 ---------------------------------------------------------------------
 Center     Atomic      Atomic             Coordinates (Angstroms)
 Number     Number       Type             X           Y           Z
 ---------------------------------------------------------------------
      1          6           0       -1.994866   -0.039457   -0.146242
      2          6           0        3.406217   -0.984567    0.162340
      3          6           0        3.380063    0.403009    0.820164
      4          6           0        2.732255   -0.966895   -1.217761
      5          6           0        1.950622    0.966176    0.897649
      6          6           0        1.298363   -0.414712   -1.141496
      7          6           0        1.281518    0.981804   -0.490587
      8          6           0       -2.548807   -2.391198   -0.252800
      9          6           0       -1.024353   -1.631301    1.531872
     10          6           0       -0.089162    1.696619   -0.510491
     11          6           0       -1.228384    1.197102    0.411364
     12          7           0       -1.829522   -1.268319    0.366812
     13          7           0       -2.323485    2.261301    0.335288
     14          8           0       -2.772659    0.227139   -1.076592
     15          1           0        4.439656   -1.337648    0.072464
     16          1           0        2.888630   -1.706065    0.812578
     17          1           0        3.816740    0.360659    1.824504
     18          1           0        4.004232    1.094955    0.237726
     19          1           0        3.321107   -0.341786   -1.903556
     20          1           0        2.718687   -1.973674   -1.650885
     21          1           0        1.367305    0.343825    1.593794
     22          1           0        1.967359    1.979875    1.321519
     23          1           0        0.855995   -0.365380   -2.145044
     24          1           0        0.680735   -1.112592   -0.560894
     25          1           0        1.906806    1.623611   -1.129707
     26          1           0       -1.827737   -3.146855   -0.580430
     27          1           0       -3.117286   -2.027262   -1.105680
     28          1           0       -3.226679   -2.840898    0.480236
     29          1           0       -0.512708   -0.771827    1.959585
     30          1           0       -0.269181   -2.371116    1.247066
     31          1           0       -1.671675   -2.073926    2.296913
     32          1           0        0.099963    2.742677   -0.225627
     33          1           0       -0.480252    1.704965   -1.536065
     34          1           0       -0.918655    1.130187    1.453082
     35          1           0       -1.948734    3.210662    0.246107
     36          1           0       -2.969048    2.233606    1.131882
     37          1           0       -2.853731    1.976534   -0.525605
 ---------------------------------------------------------------------

 SCF Done:  E(RB3LYP) =  -617.541981649     A.U. after    1 cycles

 Isotropic polarizability for W=    0.000000      128.50 Bohr**3.
 End of Minotr Frequency-dependent properties file   721 does not exist.

                     1                      2                      3
                     A                      A                      A
 Frequencies --    37.8746                68.7076                76.0444
 Red. masses --     3.2018                 3.5495                 2.8822
 Frc consts  --     0.0027                 0.0099                 0.0098
 IR Inten    --     1.5358                 5.3679                 0.6869

                     4                      5                      6
                     A                      A                      A
 Frequencies --    81.4865                98.4075               119.4434
 Red. masses --     1.4530                 2.3002                 1.9896
 Frc consts  --     0.0057                 0.0131                 0.0167
 IR Inten    --     0.0488                 3.9427                 1.9409

                     7                      8                      9
                     A                      A                      A
 Frequencies --   134.8612               175.2245               227.7306
 Red. masses --     1.2931                 3.1389                 3.0793
 Frc consts  --     0.0139                 0.0568                 0.0941
 IR Inten    --     0.4223                 2.1154                 7.2543

                    10                     11                     12
                     A                      A                      A
 Frequencies --   234.9375               246.9525               286.3188
 Red. masses --     1.8679                 2.7763                 2.4888
 Frc consts  --     0.0607                 0.0998                 0.1202
 IR Inten    --     0.4819                 1.0179                11.4398

                    13                     14                     15
                     A                      A                      A
 Frequencies --   306.5086               315.2438               325.8400
 Red. masses --     2.3243                 1.2050                 1.9558
 Frc consts  --     0.1287                 0.0706                 0.1223
 IR Inten    --     1.4603                 3.0806                 0.9170

                    16                     17                     18
                     A                      A                      A
 Frequencies --   358.7741               382.4236               418.4738
 Red. masses --     2.1849                 2.7716                 2.8902
 Frc consts  --     0.1657                 0.2388                 0.2982
 IR Inten    --     4.9460                16.7249                42.1873

                    19                     20                     21
                     A                      A                      A
 Frequencies --   429.4017               450.6853               483.3946
 Red. masses --     2.8054                 2.9656                 3.2113
 Frc consts  --     0.3048                 0.3549                 0.4421
 IR Inten    --    27.6478                 0.3254                15.0616

                    22                     23                     24
                     A                      A                      A
 Frequencies --   493.4641               615.2470               642.1679
 Red. masses --     1.6924                 4.1770                 3.0988
 Frc consts  --     0.2428                 0.9316                 0.7529
 IR Inten    --     4.2723                 8.0950                 2.5781

                    25                     26                     27
                     A                      A                      A
 Frequencies --   727.7903               744.1560               778.7132
 Red. masses --     5.7414                 3.1424                 2.5835
 Frc consts  --     1.7918                 1.0253                 0.9230
 IR Inten    --     4.5675                16.4334                 3.6325

                    28                     29                     30
                     A                      A                      A
 Frequencies --   802.2523               849.3352               866.9166
 Red. masses --     1.4811                 2.7765                 1.7367
 Frc consts  --     0.5616                 1.1800                 0.7690
 IR Inten    --     0.3217                 0.9361                 2.3855

                    31                     32                     33
                     A                      A                      A
 Frequencies --   885.8577               916.7447               921.1969
 Red. masses --     2.1635                 2.2755                 1.6887
 Frc consts  --     1.0003                 1.1268                 0.8443
 IR Inten    --     6.5145                14.8936                 3.2112

                    34                     35                     36
                     A                      A                      A
 Frequencies --   930.8187               954.1112               972.4508
 Red. masses --     1.8291                 2.1999                 2.4269
 Frc consts  --     0.9337                 1.1799                 1.3522
 IR Inten    --     2.8307                 6.6195                 3.3402

                    37                     38                     39
                     A                      A                      A
 Frequencies --   998.4862              1043.7091              1062.1022
 Red. masses --     2.5885                 1.8898                 1.5308
 Frc consts  --     1.5205                 1.2129                 1.0174
 IR Inten    --     2.2022                 1.7610                12.8524

                    40                     41                     42
                     A                      A                      A
 Frequencies --  1079.8539              1084.4936              1096.2005
 Red. masses --     1.4482                 1.4135                 1.9293
 Frc consts  --     0.9950                 0.9795                 1.3660
 IR Inten    --    15.3009                 2.3063                15.3195

                    43                     44                     45
                     A                      A                      A
 Frequencies --  1102.8892              1110.5844              1130.3370
 Red. masses --     1.3490                 1.4938                 1.2601
 Frc consts  --     0.9668                 1.0856                 0.9486
 IR Inten    --     1.3992                19.2653                 1.0156

                    46                     47                     48
                     A                      A                      A
 Frequencies --  1139.7067              1172.7923              1180.4357
 Red. masses --     1.7514                 1.7711                 1.7426
 Frc consts  --     1.3404                 1.4353                 1.4307
 IR Inten    --     8.1577                54.2813                 1.9972

                    49                     50                     51
                     A                      A                      A
 Frequencies --  1184.3417              1209.7288              1262.3682
 Red. masses --     1.5287                 1.5215                 3.1732
 Frc consts  --     1.2633                 1.3119                 2.9793
 IR Inten    --     1.2345                 4.4930                36.8332

                    52                     53                     54
                     A                      A                      A
 Frequencies --  1280.1810              1283.6903              1304.3835
 Red. masses --     1.5068                 1.4100                 1.2623
 Frc consts  --     1.4550                 1.3689                 1.2654
 IR Inten    --     7.5871                 2.2934                 3.3807

                    55                     56                     57
                     A                      A                      A
 Frequencies --  1308.8934              1345.8929              1351.9760
 Red. masses --     1.2683                 1.2684                 1.2696
 Frc consts  --     1.2802                 1.3537                 1.3672
 IR Inten    --     2.7191                 3.4074                 0.9075

                    58                     59                     60
                     A                      A                      A
 Frequencies --  1363.1003              1374.2930              1387.7967
 Red. masses --     1.2326                 1.3427                 1.3467
 Frc consts  --     1.3493                 1.4942                 1.5282
 IR Inten    --     3.2781                 0.3711                 0.8041

                    61                     62                     63
                     A                      A                      A
 Frequencies --  1396.1720              1402.5715              1404.1746
 Red. masses --     1.4037                 1.4574                 1.4651
 Frc consts  --     1.6121                 1.6892                 1.7020
 IR Inten    --     5.8188                 1.2865                 4.5928

                    64                     65                     66
                     A                      A                      A
 Frequencies --  1413.1484              1429.9171              1451.2855
 Red. masses --     1.4319                 1.4354                 1.2217
 Frc consts  --     1.6847                 1.7292                 1.5161
 IR Inten    --     1.9207                12.7664               405.6409

                    67                     68                     69
                     A                      A                      A
 Frequencies --  1462.5510              1473.3224              1498.5002
 Red. masses --     1.1441                 2.0000                 1.1095
 Frc consts  --     1.4420                 2.5579                 1.4679
 IR Inten    --    15.8601                20.7310                 8.5819

                    70                     71                     72
                     A                      A                      A
 Frequencies --  1503.5068              1509.4286              1512.1192
 Red. masses --     1.0766                 1.1064                 1.0920
 Frc consts  --     1.4339                 1.4852                 1.4711
 IR Inten    --     6.5635                16.9605                 4.9702

                    73                     74                     75
                     A                      A                      A
 Frequencies --  1515.8501              1518.2365              1521.8056
 Red. masses --     1.0943                 1.0954                 1.0836
 Frc consts  --     1.4815                 1.4876                 1.4786
 IR Inten    --     4.1158                 4.1205                 8.3826

                    76                     77                     78
                     A                      A                      A
 Frequencies --  1526.5093              1529.0487              1535.9843
 Red. masses --     1.0867                 1.0574                 1.1027
 Frc consts  --     1.4920                 1.4565                 1.5328
 IR Inten    --     8.3384                37.0137                 2.4033

                    79                     80                     81
                     A                      A                      A
 Frequencies --  1563.9757              1654.8309              1698.5542
 Red. masses --     1.4019                 1.1135                 1.0669
 Frc consts  --     2.0204                 1.7965                 1.8135
 IR Inten    --    52.8493                68.3336                68.1146

                    82                     83                     84
                     A                      A                      A
 Frequencies --  1746.3727              3006.0706              3014.3721
 Red. masses --     4.3841                 1.0717                 1.0650
 Frc consts  --     7.8779                 5.7056                 5.7014
 IR Inten    --   192.9355                 4.4472                40.5413

                    85                     86                     87
                     A                      A                      A
 Frequencies --  3020.2300              3021.0070              3038.0200
 Red. masses --     1.0717                 1.0750                 1.0681
 Frc consts  --     5.7597                 5.7802                 5.8081
 IR Inten    --    33.0895                 4.7615                 4.4493

                    88                     89                     90
                     A                      A                      A
 Frequencies --  3041.3995              3044.9252              3059.5497
 Red. masses --     1.0671                 1.0602                 1.0936
 Frc consts  --     5.8155                 5.7914                 6.0312
 IR Inten    --    26.0720                28.2781                62.6533

                    91                     92                     93
                     A                      A                      A
 Frequencies --  3066.4014              3071.3351              3079.3934
 Red. masses --     1.0384                 1.0378                 1.0975
 Frc consts  --     5.7529                 5.7680                 6.1319
 IR Inten    --     5.9103                29.6680                 3.6479

                    94                     95                     96
                     A                      A                      A
 Frequencies --  3082.1149              3091.3587              3092.0729
 Red. masses --     1.0987                 1.0683                 1.0977
 Frc consts  --     6.1493                 6.0153                 6.1835
 IR Inten    --    33.0646               156.0829                63.5370

                    97                     98                     99
                     A                      A                      A
 Frequencies --  3092.9292              3096.0699              3124.3388
 Red. masses --     1.0907                 1.1028                 1.1056
 Frc consts  --     6.1474                 6.2281                 6.3585
 IR Inten    --    37.3963                72.4206                11.2085

                   100                    101                    102
                     A                      A                      A
 Frequencies --  3132.1716              3167.1239              3205.5347
 Red. masses --     1.1062                 1.0892                 1.0957
 Frc consts  --     6.3942                 6.4368                 6.6332
 IR Inten    --     8.2255                 4.7691                10.9547

                   103                    104                    105
                     A                      A                      A
 Frequencies --  3215.0852              3447.9567              3514.5127
 Red. masses --     1.1002                 1.0570                 1.0953
 Frc consts  --     6.7002                 7.4035                 7.9710
 IR Inten    --     0.7162                77.3086                68.9346

 - Thermochemistry -
 -------------------
 Temperature   298.150 Kelvin.  Pressure   1.00000 Atm.
 Atom     1 has atomic number  6 and mass  12.00000

 Molecular mass:   199.18104 amu.
 Principal axes and moments of inertia in atomic units:
                           1         2         3
     Eigenvalues --  1891.021384073.531894890.22096
           X            0.99998   0.00057  -0.00572
           Y           -0.00057   1.00000   0.00089
           Z            0.00572  -0.00089   0.99998
 This molecule is an asymmetric top.
 Rotational symmetry number  1.
 Warning -- assumption of classical behavior for rotation
           may cause significant error
 Rotational temperatures (Kelvin)      0.04580     0.02126     0.01771
 Rotational constants (GHZ):           0.95437     0.44304     0.36905
 Zero-point vibrational energy     904436.8 (Joules/Mol)
                                  216.16559 (Kcal/Mol)
 Warning -- explicit consideration of  23 degrees of freedom as
           vibrations may cause significant error
 Vibrational temperatures:     54.49    98.85   109.41   117.24   141.59
          (Kelvin)            171.85   194.04   252.11   327.65   338.02
                              355.31   411.95   441.00   453.57   468.81
                              516.20   550.22   602.09   617.81   648.43
                              695.50   709.98   885.20   923.94  1047.13
                             1070.67  1120.39  1154.26  1222.00  1247.30
                             1274.55  1318.99  1325.40  1339.24  1372.75
                             1399.14  1436.60  1501.66  1528.13  1553.67
                             1560.34  1577.19  1586.81  1597.88  1626.30
                             1639.78  1687.38  1698.38  1704.00  1740.53
                             1816.26  1841.89  1846.94  1876.71  1883.20
                             1936.44  1945.19  1961.19  1977.30  1996.73
                             2008.78  2017.98  2020.29  2033.20  2057.33
                             2088.07  2104.28  2119.78  2156.00  2163.21
                             2171.73  2175.60  2180.97  2184.40  2189.54
                             2196.30  2199.96  2209.94  2250.21  2380.93
                             2443.84  2512.64  4325.06  4337.00  4345.43
                             4346.55  4371.03  4375.89  4380.96  4402.00
                             4411.86  4418.96  4430.55  4434.47  4447.77
                             4448.80  4450.03  4454.55  4495.22  4506.49
                             4556.78  4612.04  4625.78  4960.83  5056.59

 Zero-point correction=                           0.344482 (Hartree/Particle)
 Thermal correction to Energy=                    0.359985
 Thermal correction to Enthalpy=                  0.360930
 Thermal correction to Gibbs Free Energy=         0.301874
 Sum of electronic and zero-point Energies=           -617.197500
 Sum of electronic and thermal Energies=              -617.181996
 Sum of electronic and thermal Enthalpies=            -617.181052
 Sum of electronic and thermal Free Energies=         -617.240108

                     E (Thermal)             CV                S
                      KCal/Mol        Cal/Mol-Kelvin    Cal/Mol-Kelvin
 Total                  225.894             58.820            124.294
 Electronic               0.000              0.000              0.000
 Translational            0.889              2.981             41.772
 Rotational               0.889              2.981             31.999
 Vibrational            224.117             52.858             50.522
 Vibration     1          0.594              1.982              5.367
 Vibration     2          0.598              1.969              4.190
 Vibration     3          0.599              1.965              3.990
 Vibration     4          0.600              1.962              3.855
 Vibration     5          0.604              1.950              3.486
 Vibration     6          0.609              1.933              3.109
 Vibration     7          0.613              1.919              2.876
 Vibration     8          0.627              1.873              2.379
 Vibration     9          0.651              1.799              1.897
 Vibration    10          0.655              1.787              1.841
 Vibration    11          0.661              1.768              1.752
 Vibration    12          0.684              1.699              1.496
 Vibration    13          0.697              1.661              1.381
 Vibration    14          0.703              1.645              1.335
 Vibration    15          0.710              1.624              1.281
 Vibration    16          0.734              1.557              1.127
 Vibration    17          0.752              1.508              1.030
 Vibration    18          0.781              1.430              0.897
 Vibration    19          0.791              1.406              0.861
 Vibration    20          0.809              1.359              0.794
 Vibration    21          0.840              1.287              0.701
 Vibration    22          0.849              1.265              0.675
 Vibration    23          0.975              1.000              0.424

 Optimization completed.
    -- Stationary point found.
 Normal termination of Gaussian 09 at Fri Feb 16 20:17:50 2018.
