 Gaussian 09, Revision C.01,
 Gaussian 09:  AM64L-G09RevC.01 23-Sep-2011

 ----------------------------------------------------------------------
 #HF/6-31G* Geom=AllCheck Guess=Read Pop=(MK,ReadRadii) Integral=(Grid=
 UltraFine) iop(6/33=2)
 ----------------------------------------------------------------------

 Structure from the checkpoint file:  frag0-conf1.chk
 ----------------------------
 Optimization for frag0-conf1
 ----------------------------
 Charge =  0 Multiplicity = 1

                         Standard orientation:
 ---------------------------------------------------------------------
 Center     Atomic      Atomic             Coordinates (Angstroms)
 Number     Number       Type             X           Y           Z
 ---------------------------------------------------------------------
      1          6           0        1.437078    0.456941   -0.115695
      2          6           0       -0.975052   -1.752877   -0.209773
      3          6           0       -0.950461    2.591036   -0.127691
      4          6           0       -1.346835    1.735855    1.089562
      5          6           0       -0.455679    1.713512   -1.301491
      6          6           0       -1.925114    0.382841    0.669872
      7          6           0        0.089426    0.345147   -0.875560
      8          6           0       -2.131774   -2.486656    0.449931
      9          6           0        3.362900   -0.855483    0.683509
     10          7           0       -0.929700   -0.393336   -0.090408
     11          7           0        2.105998   -0.720970   -0.028018
     12          8           0        1.850383    1.523546    0.336242
     13          8           0       -0.107373   -2.383301   -0.828056
     14          1           0       -1.810838    3.182478   -0.465188
     15          1           0       -0.167351    3.290816    0.170407
     16          1           0       -0.465454    1.560882    1.715278
     17          1           0       -2.085688    2.256147    1.710063
     18          1           0       -1.280989    1.525297   -1.999491
     19          1           0        0.323613    2.233490   -1.866096
     20          1           0       -2.213773   -0.187538    1.556428
     21          1           0       -2.835152    0.532387    0.067365
     22          1           0        0.271405   -0.264261   -1.766324
     23          1           0       -3.104274   -2.055750    0.189840
     24          1           0       -2.040285   -2.464881    1.542642
     25          1           0       -2.093012   -3.525224    0.119544
     26          1           0        3.698447    0.144240    0.963342
     27          1           0        4.120649   -1.325793    0.046507
     28          1           0        3.247887   -1.460407    1.592239
     29          1           0        1.629722   -1.545608   -0.389042
 ---------------------------------------------------------------------

 SCF Done:  E(RHF) =  -608.785107050     A.U. after   14 cycles

 The electronic state is 1-A.
 Alpha  occ. eigenvalues --  -20.53446 -20.51526 -15.60333 -15.57018 -11.36577
 Alpha  occ. eigenvalues --  -11.34114 -11.27990 -11.27965 -11.24883 -11.24646
 Alpha  occ. eigenvalues --  -11.23046 -11.23035 -11.22185  -1.38541  -1.36303
 Alpha  occ. eigenvalues --   -1.25503  -1.21117  -1.08227  -1.04770  -1.00626
 Alpha  occ. eigenvalues --   -0.95357  -0.91306  -0.87383  -0.78845  -0.77869
 Alpha  occ. eigenvalues --   -0.74153  -0.71170  -0.68860  -0.65010  -0.64191
 Alpha  occ. eigenvalues --   -0.63065  -0.61515  -0.60454  -0.59989  -0.58431
 Alpha  occ. eigenvalues --   -0.57700  -0.56524  -0.56014  -0.53874  -0.53544
 Alpha  occ. eigenvalues --   -0.52995  -0.51943  -0.50370  -0.47210  -0.46765
 Alpha  occ. eigenvalues --   -0.46162  -0.42955  -0.41869  -0.37167  -0.36819
 Alpha virt. eigenvalues --    0.17475   0.20230   0.20870   0.24412   0.25396
 Alpha virt. eigenvalues --    0.26755   0.28340   0.28671   0.29095   0.30175
 Alpha virt. eigenvalues --    0.30680   0.31964   0.32769   0.33196   0.33505

 Mulliken atomic charges:
              1
     1  C    0.790912
     2  C    0.777596
     3  C   -0.302141
     4  C   -0.353079
     5  C   -0.325481
     6  C   -0.104786
     7  C   -0.083841
     8  C   -0.591617
     9  C   -0.284212
    10  N   -0.683345
    11  N   -0.824536
    12  O   -0.650927
    13  O   -0.668119
    14  H    0.154099
    15  H    0.205884
    16  H    0.202186
    17  H    0.172624
    18  H    0.168016
    19  H    0.196277
    20  H    0.182561
    21  H    0.167876
    22  H    0.234415
    23  H    0.191659
    24  H    0.197151
    25  H    0.222782
    26  H    0.219867
    27  H    0.168468
    28  H    0.162427
    29  H    0.457285
 Sum of Mulliken atomic charges =   0.00000

 Dipole moment (field-independent basis, Debye):
    X=             -3.4693    Y=             -0.7830    Z=              0.9233  Tot=              3.6744
 Quadrupole moment (field-independent basis, Debye-Ang):
   XX=            -73.0370   YY=            -86.1417   ZZ=            -78.1165
   XY=             -4.0192   XZ=             -1.9946   YZ=             -6.2793

 Normal termination of Gaussian 09 at Sun Feb 18 17:07:44 2018.
