 Gaussian 09, Revision C.01,
 Gaussian 09:  AM64L-G09RevC.01 23-Sep-2011

 ----------------------------------------------------------------------
 #B3LYP/6-31G* Integral=(Grid=UltraFine) freq Opt pop=none Geom=AllChec
 k Guess=Read
 ----------------------------------------------------------------------

 Structure from the checkpoint file:  frag0-conf1.chk
 ----------------------------
 Optimization for frag0-conf1
 ----------------------------
 Charge =  0 Multiplicity = 1

 SCF Done:  E(RB3LYP) =  -612.580787899     A.U. after    1 cycles
 Optimization completed.
    -- Stationary point found.
 Normal termination of Gaussian 09 at Sat Feb 17 20:54:27 2018.

 --------------------------------------------------------------------
 #N Geom=AllCheck Guess=TCheck SCRF=Check GenChk RB3LYP/6-31G(d) Freq
 --------------------------------------------------------------------

 Structure from the checkpoint file:  frag0-conf1.chk
 ----------------------------
 Optimization for frag0-conf1
 ----------------------------
 Charge =  0 Multiplicity = 1

                         Standard orientation:
 ---------------------------------------------------------------------
 Center     Atomic      Atomic             Coordinates (Angstroms)
 Number     Number       Type             X           Y           Z
 ---------------------------------------------------------------------
      1          6           0        1.437078    0.456941   -0.115695
      2          6           0       -0.975052   -1.752877   -0.209773
      3          6           0       -0.950461    2.591036   -0.127691
      4          6           0       -1.346835    1.735855    1.089562
      5          6           0       -0.455679    1.713512   -1.301491
      6          6           0       -1.925114    0.382841    0.669872
      7          6           0        0.089426    0.345147   -0.875560
      8          6           0       -2.131774   -2.486656    0.449931
      9          6           0        3.362900   -0.855483    0.683509
     10          7           0       -0.929700   -0.393336   -0.090408
     11          7           0        2.105998   -0.720970   -0.028018
     12          8           0        1.850383    1.523546    0.336242
     13          8           0       -0.107373   -2.383301   -0.828056
     14          1           0       -1.810838    3.182478   -0.465188
     15          1           0       -0.167351    3.290816    0.170407
     16          1           0       -0.465454    1.560882    1.715278
     17          1           0       -2.085688    2.256147    1.710063
     18          1           0       -1.280989    1.525297   -1.999491
     19          1           0        0.323613    2.233490   -1.866096
     20          1           0       -2.213773   -0.187538    1.556428
     21          1           0       -2.835152    0.532387    0.067365
     22          1           0        0.271405   -0.264261   -1.766324
     23          1           0       -3.104274   -2.055750    0.189840
     24          1           0       -2.040285   -2.464881    1.542642
     25          1           0       -2.093012   -3.525224    0.119544
     26          1           0        3.698447    0.144240    0.963342
     27          1           0        4.120649   -1.325793    0.046507
     28          1           0        3.247887   -1.460407    1.592239
     29          1           0        1.629722   -1.545608   -0.389042
 ---------------------------------------------------------------------

 SCF Done:  E(RB3LYP) =  -612.580787899     A.U. after    2 cycles

 Isotropic polarizability for W=    0.000000      109.30 Bohr**3.
 End of Minotr Frequency-dependent properties file   721 does not exist.

                     1                      2                      3
                     A                      A                      A
 Frequencies --    52.2434                69.5282                84.3218
 Red. masses --     6.4075                 1.0199                 3.2432
 Frc consts  --     0.0103                 0.0029                 0.0136
 IR Inten    --     4.9204                 0.0287                 1.8370

                     4                      5                      6
                     A                      A                      A
 Frequencies --    95.1006               133.7041               149.7778
 Red. masses --     2.7736                 3.6466                 3.5406
 Frc consts  --     0.0148                 0.0384                 0.0468
 IR Inten    --     1.7172                 0.5368                10.2165

                     7                      8                      9
                     A                      A                      A
 Frequencies --   167.9258               179.8774               206.0974
 Red. masses --     1.7967                 1.4946                 2.5567
 Frc consts  --     0.0299                 0.0285                 0.0640
 IR Inten    --     0.7742                 1.2930                 3.6268

                    10                     11                     12
                     A                      A                      A
 Frequencies --   245.2429               281.3994               305.4848
 Red. masses --     4.1461                 2.1294                 3.1799
 Frc consts  --     0.1469                 0.0993                 0.1748
 IR Inten    --     3.8128                 3.0228                 6.2902

                    13                     14                     15
                     A                      A                      A
 Frequencies --   326.4601               353.0453               386.7939
 Red. masses --     3.7967                 5.1467                 4.3971
 Frc consts  --     0.2384                 0.3780                 0.3876
 IR Inten    --     3.6843                10.3314                12.8329

                    16                     17                     18
                     A                      A                      A
 Frequencies --   473.3950               499.1514               581.9627
 Red. masses --     3.9439                 2.7019                 3.3341
 Frc consts  --     0.5207                 0.3966                 0.6653
 IR Inten    --    12.2344                 4.2493                 4.8256

                    19                     20                     21
                     A                      A                      A
 Frequencies --   588.3405               615.7704               679.1121
 Red. masses --     3.9780                 3.0268                 2.8898
 Frc consts  --     0.8113                 0.6762                 0.7852
 IR Inten    --    10.7638                14.2316                23.1816

                    22                     23                     24
                     A                      A                      A
 Frequencies --   723.0154               755.7304               784.9094
 Red. masses --     2.9814                 1.2823                 1.3432
 Frc consts  --     0.9183                 0.4315                 0.4876
 IR Inten    --    12.1072                69.6683                11.1349

                    25                     26                     27
                     A                      A                      A
 Frequencies --   823.3709               854.8854               885.8633
 Red. masses --     3.3804                 3.3592                 2.5533
 Frc consts  --     1.3502                 1.4465                 1.1806
 IR Inten    --     1.4843                 0.9389                 2.4268

                    28                     29                     30
                     A                      A                      A
 Frequencies --   927.7480               954.3079               995.8177
 Red. masses --     2.3119                 2.1717                 2.1956
 Frc consts  --     1.1724                 1.1653                 1.2828
 IR Inten    --     4.0519                 3.6498                 4.2735

                    31                     32                     33
                     A                      A                      A
 Frequencies --  1007.1617              1046.5333              1063.9741
 Red. masses --     2.0630                 2.1263                 1.7244
 Frc consts  --     1.2330                 1.3721                 1.1501
 IR Inten    --    14.9769                 1.8518                 4.2750

                    34                     35                     36
                     A                      A                      A
 Frequencies --  1075.9252              1100.3878              1125.1725
 Red. masses --     3.2305                 1.8983                 2.0014
 Frc consts  --     2.2034                 1.3543                 1.4929
 IR Inten    --    10.0658                 0.4674                 4.2017

                    37                     38                     39
                     A                      A                      A
 Frequencies --  1138.1971              1159.8421              1170.8427
 Red. masses --     1.7136                 1.2894                 2.9669
 Frc consts  --     1.3080                 1.0219                 2.3963
 IR Inten    --     0.6899                 1.8795                33.2378

                    40                     41                     42
                     A                      A                      A
 Frequencies --  1189.7555              1225.1634              1265.5698
 Red. masses --     1.7651                 1.2007                 1.8782
 Frc consts  --     1.4721                 1.0619                 1.7724
 IR Inten    --    44.6878                 3.6721                43.1111

                    43                     44                     45
                     A                      A                      A
 Frequencies --  1287.6683              1297.0041              1316.8055
 Red. masses --     1.5157                 1.4263                 1.2418
 Frc consts  --     1.4808                 1.4137                 1.2687
 IR Inten    --     9.9716                27.1197                 5.2117

                    46                     47                     48
                     A                      A                      A
 Frequencies --  1350.8796              1373.8742              1389.9983
 Red. masses --     1.7158                 1.3441                 1.3891
 Frc consts  --     1.8448                 1.4948                 1.5813
 IR Inten    --    31.6905                 1.4673                 7.7206

                    49                     50                     51
                     A                      A                      A
 Frequencies --  1406.6865              1410.9685              1412.1355
 Red. masses --     1.4012                 1.4491                 1.3511
 Frc consts  --     1.6335                 1.6998                 1.5874
 IR Inten    --     4.7882                16.2325                18.7701

                    52                     53                     54
                     A                      A                      A
 Frequencies --  1419.2977              1451.6870              1459.1979
 Red. masses --     1.3769                 3.0721                 1.1828
 Frc consts  --     1.6342                 3.8144                 1.4838
 IR Inten    --     5.2087               209.7167                25.7614

                    55                     56                     57
                     A                      A                      A
 Frequencies --  1501.0919              1507.1508              1514.9285
 Red. masses --     1.0914                 1.0773                 1.0570
 Frc consts  --     1.4489                 1.4418                 1.4293
 IR Inten    --    11.8300                 0.3329                 7.5527

                    58                     59                     60
                     A                      A                      A
 Frequencies --  1519.8541              1526.1503              1530.4508
 Red. masses --     1.0822                 1.0831                 1.0634
 Frc consts  --     1.4729                 1.4863                 1.4676
 IR Inten    --     9.6635                46.4557                11.7316

                    61                     62                     63
                     A                      A                      A
 Frequencies --  1531.2464              1543.8963              1615.0101
 Red. masses --     1.0930                 1.0883                 1.6931
 Frc consts  --     1.5099                 1.5284                 2.6018
 IR Inten    --     9.7343                 0.3175               208.4579

                    64                     65                     66
                     A                      A                      A
 Frequencies --  1717.3295              1773.3984              3000.5014
 Red. masses --     8.4977                 8.2199                 1.0729
 Frc consts  --    14.7659                15.2310                 5.6910
 IR Inten    --   188.9862               294.2119                46.0137

                    67                     68                     69
                     A                      A                      A
 Frequencies --  3041.4657              3044.2509              3057.8961
 Red. masses --     1.0397                 1.0715                 1.0540
 Frc consts  --     5.6664                 5.8504                 5.8070
 IR Inten    --    68.8931                16.8375                26.9975

                    70                     71                     72
                     A                      A                      A
 Frequencies --  3058.3192              3066.6725              3085.5587
 Red. masses --     1.0542                 1.0631                 1.0844
 Frc consts  --     5.8097                 5.8906                 6.0827
 IR Inten    --    25.3716                29.6617                 8.7425

                    73                     74                     75
                     A                      A                      A
 Frequencies --  3094.3328              3107.7226              3111.9345
 Red. masses --     1.1024                 1.0947                 1.0954
 Frc consts  --     6.2189                 6.2289                 6.2501
 IR Inten    --    36.4360                33.7976                18.8865

                    76                     77                     78
                     A                      A                      A
 Frequencies --  3113.2066              3119.6397              3138.2522
 Red. masses --     1.0977                 1.0994                 1.0967
 Frc consts  --     6.2681                 6.3041                 6.3638
 IR Inten    --    16.5777                 9.4923                22.8380

                    79                     80                     81
                     A                      A                      A
 Frequencies --  3171.2363              3176.7155              3493.9960
 Red. masses --     1.0983                 1.1006                 1.0810
 Frc consts  --     6.5078                 6.5438                 7.7753
 IR Inten    --     3.2207                 6.5404               167.9102

 - Thermochemistry -
 -------------------
 Temperature   298.150 Kelvin.  Pressure   1.00000 Atm.
 Atom     1 has atomic number  6 and mass  12.00000

 Molecular mass:   184.12118 amu.
 Principal axes and moments of inertia in atomic units:
                           1         2         3
     Eigenvalues --  2055.334562206.988563575.58023
           X            0.98355  -0.18060  -0.00312
           Y            0.18050   0.98338  -0.01957
           Z            0.00660   0.01868   0.99980
 This molecule is an asymmetric top.
 Rotational symmetry number  1.
 Warning -- assumption of classical behavior for rotation
           may cause significant error
 Rotational temperatures (Kelvin)      0.04214     0.03925     0.02422
 Rotational constants (GHZ):           0.87808     0.81774     0.50474
 Zero-point vibrational energy     666842.3 (Joules/Mol)
                                  159.37912 (Kcal/Mol)
 Warning -- explicit consideration of  20 degrees of freedom as
           vibrations may cause significant error
 Vibrational temperatures:     75.17   100.04   121.32   136.83   192.37
          (Kelvin)            215.50   241.61   258.80   296.53   352.85
                              404.87   439.52   469.70   507.95   556.51
                              681.11   718.17   837.31   846.49   885.96
                              977.09  1040.26  1087.33  1129.31  1184.65
                             1229.99  1274.56  1334.82  1373.03  1432.76
                             1449.08  1505.73  1530.82  1548.01  1583.21
                             1618.87  1637.61  1668.75  1684.58  1711.79
                             1762.73  1820.87  1852.67  1866.10  1894.59
                             1943.61  1976.70  1999.90  2023.91  2030.07
                             2031.75  2042.05  2088.65  2099.46  2159.73
                             2168.45  2179.64  2186.73  2195.79  2201.97
                             2203.12  2221.32  2323.64  2470.85  2551.52
                             4317.05  4375.99  4379.99  4399.62  4400.23
                             4412.25  4439.43  4452.05  4471.31  4477.37
                             4479.20  4488.46  4515.24  4562.70  4570.58
                             5027.07

 Zero-point correction=                           0.253987 (Hartree/Particle)
 Thermal correction to Energy=                    0.267542
 Thermal correction to Enthalpy=                  0.268486
 Thermal correction to Gibbs Free Energy=         0.213753
 Sum of electronic and zero-point Energies=           -612.326801
 Sum of electronic and thermal Energies=              -612.313246
 Sum of electronic and thermal Enthalpies=            -612.312301
 Sum of electronic and thermal Free Energies=         -612.367035

                     E (Thermal)             CV                S
                      KCal/Mol        Cal/Mol-Kelvin    Cal/Mol-Kelvin
 Total                  167.885             49.939            115.197
 Electronic               0.000              0.000              0.000
 Translational            0.889              2.981             41.538
 Rotational               0.889              2.981             31.162
 Vibrational            166.108             43.977             42.497
 Vibration     1          0.596              1.977              4.731
 Vibration     2          0.598              1.969              4.167
 Vibration     3          0.601              1.960              3.788
 Vibration     4          0.603              1.953              3.552
 Vibration     5          0.613              1.920              2.892
 Vibration     6          0.618              1.903              2.675
 Vibration     7          0.625              1.882              2.459
 Vibration     8          0.629              1.867              2.330
 Vibration     9          0.641              1.831              2.078
 Vibration    10          0.660              1.771              1.765
 Vibration    11          0.681              1.708              1.525
 Vibration    12          0.696              1.663              1.387
 Vibration    13          0.710              1.623              1.278
 Vibration    14          0.729              1.569              1.153
 Vibration    15          0.755              1.498              1.012
 Vibration    16          0.830              1.309              0.728
 Vibration    17          0.855              1.252              0.660
 Vibration    18          0.939              1.070              0.482
 Vibration    19          0.946              1.057              0.470
 Vibration    20          0.975              0.999              0.423

 Optimization completed.
    -- Stationary point found.
 Normal termination of Gaussian 09 at Sat Feb 17 21:20:46 2018.
