 Gaussian 09, Revision C.01,
 Gaussian 09:  AM64L-G09RevC.01 23-Sep-2011

 ----------------------------------------------------------------------
 #HF/6-31G* Geom=AllCheck Guess=Read Pop=(MK,ReadRadii) Integral=(Grid=
 UltraFine) iop(6/33=2)
 ----------------------------------------------------------------------

 Structure from the checkpoint file:  frag50-conf1.chk
 -----------------------------
 Optimization for frag50-conf1
 -----------------------------
 Charge =  1 Multiplicity = 1

                         Standard orientation:
 ---------------------------------------------------------------------
 Center     Atomic      Atomic             Coordinates (Angstroms)
 Number     Number       Type             X           Y           Z
 ---------------------------------------------------------------------
      1          6           0       -2.495964   -0.958027   -0.301122
      2          6           0        3.565609   -0.665737    0.636695
      3          6           0       -4.673644   -1.204972    0.745593
      4          6           0       -3.001925    0.191204    1.883282
      5          6           0       -0.513818    3.596998    0.092437
      6          6           0        0.477597   -2.429643   -0.583768
      7          6           0       -0.148551   -1.181685   -1.255832
      8          6           0        1.992504   -2.322064   -0.364156
      9          6           0       -1.050290   -0.373177   -0.298025
     10          7           0        3.738737    0.597419    1.049604
     11          7           0        2.330378   -1.107825    0.398382
     12          7           0       -1.173001    1.067127   -0.638682
     13          7           0       -3.305547   -0.685486    0.760143
     14          7           0        4.627912   -1.470049    0.468297
     15          8           0       -2.850593   -1.640858   -1.257743
     16          8           0        0.946964    2.232856   -1.665658
     17          8           0        0.912107    1.443215    0.747488
     18         16           0        0.199386    2.033333   -0.422591
     19          1           0       -4.873287   -1.744220    1.678350
     20          1           0       -4.786865   -1.877894   -0.101915
     21          1           0       -5.393580   -0.381881    0.657006
     22          1           0       -3.645786    1.080007    1.857224
     23          1           0       -1.965853    0.522865    1.874725
     24          1           0       -3.190942   -0.336762    2.825532
     25          1           0        0.315660    4.291026    0.246891
     26          1           0       -1.161002    3.961531   -0.708137
     27          1           0       -1.076574    3.443128    1.013421
     28          1           0       -0.010185   -2.637590    0.377208
     29          1           0        0.310421   -3.318471   -1.199117
     30          1           0        0.638140   -0.529522   -1.651846
     31          1           0       -0.766910   -1.486148   -2.103148
     32          1           0        2.342506   -3.206183    0.183498
     33          1           0        2.509985   -2.289711   -1.332081
     34          1           0       -0.648578   -0.406443    0.716202
     35          1           0        2.940261    1.228231    1.059547
     36          1           0        4.619029    0.916195    1.426178
     37          1           0        1.600920   -0.411696    0.546950
     38          1           0       -1.537647    1.208611   -1.582706
     39          1           0        5.570910   -1.115954    0.532483
     40          1           0        4.512914   -2.449833    0.257652
 ---------------------------------------------------------------------

 SCF Done:  E(RHF) =  -1247.72596719     A.U. after   13 cycles

 The electronic state is 1-A.
 Alpha  occ. eigenvalues --  -92.34266 -20.70187 -20.68680 -20.62742 -15.76468
 Alpha  occ. eigenvalues --  -15.75078 -15.74938 -15.73760 -15.69354 -11.56197
 Alpha  occ. eigenvalues --  -11.46025 -11.41368 -11.41174 -11.39604 -11.36467
 Alpha  occ. eigenvalues --  -11.35902 -11.34523 -11.33977  -9.31492  -7.00077
 Alpha  occ. eigenvalues --   -7.00041  -6.99941  -1.58480  -1.50068  -1.48109
 Alpha  occ. eigenvalues --   -1.46689  -1.36614  -1.36259  -1.35184  -1.33886
 Alpha  occ. eigenvalues --   -1.20264  -1.16743  -1.12035  -1.06604  -1.05747
 Alpha  occ. eigenvalues --   -1.02123  -0.99832  -0.96619  -0.94289  -0.93183
 Alpha  occ. eigenvalues --   -0.89734  -0.86817  -0.83481  -0.82750  -0.82654
 Alpha  occ. eigenvalues --   -0.81216  -0.79855  -0.78869  -0.78457  -0.77493
 Alpha  occ. eigenvalues --   -0.75009  -0.74875  -0.73406  -0.72877  -0.71842
 Alpha  occ. eigenvalues --   -0.71664  -0.70582  -0.68608  -0.66691  -0.66048
 Alpha  occ. eigenvalues --   -0.65317  -0.64767  -0.64078  -0.62564  -0.62367
 Alpha  occ. eigenvalues --   -0.62221  -0.61612  -0.60167  -0.59462  -0.58428
 Alpha  occ. eigenvalues --   -0.58259  -0.55279  -0.54658  -0.51473  -0.46492
 Alpha virt. eigenvalues --    0.04187   0.05542   0.06322   0.08871   0.09778
 Alpha virt. eigenvalues --    0.11564   0.12246   0.12527   0.12609   0.13607
 Alpha virt. eigenvalues --    0.13723   0.15576   0.16286   0.16659   0.16889

 Mulliken atomic charges:
              1
     1  C    0.810045
     2  C    1.047589
     3  C   -0.306811
     4  C   -0.282854
     5  C   -0.704985
     6  C   -0.354272
     7  C   -0.390769
     8  C   -0.141165
     9  C   -0.119142
    10  N   -0.959063
    11  N   -0.861150
    12  N   -0.888043
    13  N   -0.665427
    14  N   -0.933295
    15  O   -0.613996
    16  O   -0.654618
    17  O   -0.801680
    18  S    1.626664
    19  H    0.182534
    20  H    0.246911
    21  H    0.181421
    22  H    0.187526
    23  H    0.181224
    24  H    0.193698
    25  H    0.254442
    26  H    0.250445
    27  H    0.249188
    28  H    0.193455
    29  H    0.227947
    30  H    0.205476
    31  H    0.264390
    32  H    0.200500
    33  H    0.209503
    34  H    0.225288
    35  H    0.493751
    36  H    0.428211
    37  H    0.506161
    38  H    0.426155
    39  H    0.437766
    40  H    0.446980
 Sum of Mulliken atomic charges =   1.00000

 Dipole moment (field-independent basis, Debye):
    X=              9.1200    Y=              0.4286    Z=              4.5577  Tot=             10.2045
 Quadrupole moment (field-independent basis, Debye-Ang):
   XX=            -42.6750   YY=            -86.7827   ZZ=           -115.8244
   XY=            -22.1960   XZ=              2.7514   YZ=              2.1958

 Normal termination of Gaussian 09 at Sat Feb 17 21:07:55 2018.
