 Gaussian 09, Revision C.01,
 Gaussian 09:  AM64L-G09RevC.01 23-Sep-2011

 ---------------------------------------------------------
 #B3LYP/6-31G* Integral=(Grid=UltraFine) freq Opt pop=none
 ---------------------------------------------------------

 99/9=1/99;
 -----------------------------
 Optimization for frag50-conf1
 -----------------------------
 Charge =  1 Multiplicity = 1

 SCF Done:  E(RB3LYP) =  -1253.56372932     A.U. after   14 cycles
 SCF Done:  E(RB3LYP) =  -1253.57201091     A.U. after   12 cycles
 SCF Done:  E(RB3LYP) =  -1253.57282503     A.U. after   13 cycles
 SCF Done:  E(RB3LYP) =  -1253.57284759     A.U. after   12 cycles
 SCF Done:  E(RB3LYP) =  -1253.57324256     A.U. after   12 cycles
 SCF Done:  E(RB3LYP) =  -1253.57336418     A.U. after   12 cycles
 SCF Done:  E(RB3LYP) =  -1253.57357471     A.U. after   12 cycles
 SCF Done:  E(RB3LYP) =  -1253.57573007     A.U. after   15 cycles
 SCF Done:  E(RB3LYP) =  -1253.55443840     A.U. after   15 cycles
 SCF Done:  E(RB3LYP) =  -1253.58027302     A.U. after   14 cycles
 SCF Done:  E(RB3LYP) =  -1253.58568288     A.U. after    9 cycles
 SCF Done:  E(RB3LYP) =  -1253.58568389     A.U. after   10 cycles
 SCF Done:  E(RB3LYP) =  -1253.58568503     A.U. after   10 cycles
 SCF Done:  E(RB3LYP) =  -1253.58568567     A.U. after    8 cycles
 SCF Done:  E(RB3LYP) =  -1253.58568603     A.U. after    9 cycles
 SCF Done:  E(RB3LYP) =  -1253.58568630     A.U. after    7 cycles
 SCF Done:  E(RB3LYP) =  -1253.58568701     A.U. after    9 cycles
 SCF Done:  E(RB3LYP) =  -1253.58568721     A.U. after    8 cycles
 SCF Done:  E(RB3LYP) =  -1253.58568737     A.U. after    8 cycles
 Optimization completed.
    -- Stationary point found.
 Normal termination of Gaussian 09 at Sat Feb 17 00:33:50 2018.

 --------------------------------------------------------------------
 #N Geom=AllCheck Guess=TCheck SCRF=Check GenChk RB3LYP/6-31G(d) Freq
 --------------------------------------------------------------------

 Structure from the checkpoint file:  frag50-conf1.chk
 -----------------------------
 Optimization for frag50-conf1
 -----------------------------
 Charge =  1 Multiplicity = 1

                         Standard orientation:
 ---------------------------------------------------------------------
 Center     Atomic      Atomic             Coordinates (Angstroms)
 Number     Number       Type             X           Y           Z
 ---------------------------------------------------------------------
      1          6           0       -2.495964   -0.958027   -0.301122
      2          6           0        3.565609   -0.665737    0.636695
      3          6           0       -4.673644   -1.204972    0.745593
      4          6           0       -3.001925    0.191204    1.883282
      5          6           0       -0.513818    3.596998    0.092437
      6          6           0        0.477597   -2.429643   -0.583768
      7          6           0       -0.148551   -1.181685   -1.255832
      8          6           0        1.992504   -2.322064   -0.364156
      9          6           0       -1.050290   -0.373177   -0.298025
     10          7           0        3.738737    0.597419    1.049604
     11          7           0        2.330378   -1.107825    0.398382
     12          7           0       -1.173001    1.067127   -0.638682
     13          7           0       -3.305547   -0.685486    0.760143
     14          7           0        4.627912   -1.470049    0.468297
     15          8           0       -2.850593   -1.640858   -1.257743
     16          8           0        0.946964    2.232856   -1.665658
     17          8           0        0.912107    1.443215    0.747488
     18         16           0        0.199386    2.033333   -0.422591
     19          1           0       -4.873287   -1.744220    1.678350
     20          1           0       -4.786865   -1.877894   -0.101915
     21          1           0       -5.393580   -0.381881    0.657006
     22          1           0       -3.645786    1.080007    1.857224
     23          1           0       -1.965853    0.522865    1.874725
     24          1           0       -3.190942   -0.336762    2.825532
     25          1           0        0.315660    4.291026    0.246891
     26          1           0       -1.161002    3.961531   -0.708137
     27          1           0       -1.076574    3.443128    1.013421
     28          1           0       -0.010185   -2.637590    0.377208
     29          1           0        0.310421   -3.318471   -1.199117
     30          1           0        0.638140   -0.529522   -1.651846
     31          1           0       -0.766910   -1.486148   -2.103148
     32          1           0        2.342506   -3.206183    0.183498
     33          1           0        2.509985   -2.289711   -1.332081
     34          1           0       -0.648578   -0.406443    0.716202
     35          1           0        2.940261    1.228231    1.059547
     36          1           0        4.619029    0.916195    1.426178
     37          1           0        1.600920   -0.411696    0.546950
     38          1           0       -1.537647    1.208611   -1.582706
     39          1           0        5.570910   -1.115954    0.532483
     40          1           0        4.512914   -2.449833    0.257652
 ---------------------------------------------------------------------

 SCF Done:  E(RB3LYP) =  -1253.58568737     A.U. after    1 cycles

 Isotropic polarizability for W=    0.000000      152.91 Bohr**3.
 End of Minotr Frequency-dependent properties file   721 does not exist.

                     1                      2                      3
                     A                      A                      A
 Frequencies --    18.1112                20.9573                39.0874
 Red. masses --     3.8726                 4.5090                 5.4267
 Frc consts  --     0.0007                 0.0012                 0.0049
 IR Inten    --     3.9789                 0.7117                 7.4079

                     4                      5                      6
                     A                      A                      A
 Frequencies --    57.1590                60.6630                72.1925
 Red. masses --     4.0363                 3.1726                 1.6482
 Frc consts  --     0.0078                 0.0069                 0.0051
 IR Inten    --     1.6047                 1.8412                 0.1793

                     7                      8                      9
                     A                      A                      A
 Frequencies --    81.7345                88.1533               113.5556
 Red. masses --     7.1800                 2.2225                 2.2152
 Frc consts  --     0.0283                 0.0102                 0.0168
 IR Inten    --     3.1878                 1.0013                 6.1465

                    10                     11                     12
                     A                      A                      A
 Frequencies --   115.4964               147.0420               152.9157
 Red. masses --     1.7221                 2.8136                 4.5248
 Frc consts  --     0.0135                 0.0358                 0.0623
 IR Inten    --     3.0804                 3.7852                12.4317

                    13                     14                     15
                     A                      A                      A
 Frequencies --   170.4468               182.4063               191.9422
 Red. masses --     2.1177                 2.2970                 1.5665
 Frc consts  --     0.0362                 0.0450                 0.0340
 IR Inten    --     6.4853                10.6059                35.1302

                    16                     17                     18
                     A                      A                      A
 Frequencies --   208.4963               230.4365               238.4305
 Red. masses --     1.1592                 3.6714                 2.5275
 Frc consts  --     0.0297                 0.1149                 0.0847
 IR Inten    --     1.5778                 0.9944                 4.2824

                    19                     20                     21
                     A                      A                      A
 Frequencies --   251.5420               268.9147               300.0032
 Red. masses --     2.6988                 2.9719                 1.4109
 Frc consts  --     0.1006                 0.1266                 0.0748
 IR Inten    --     3.2537                 3.9693               242.5687

                    22                     23                     24
                     A                      A                      A
 Frequencies --   304.0391               317.0566               377.6016
 Red. masses --     2.6450                 2.8495                 3.3857
 Frc consts  --     0.1441                 0.1688                 0.2844
 IR Inten    --    86.4825                 3.5543                12.0651

                    25                     26                     27
                     A                      A                      A
 Frequencies --   381.8310               411.3707               414.1331
 Red. masses --     3.1366                 1.7129                 1.8123
 Frc consts  --     0.2694                 0.1708                 0.1831
 IR Inten    --     4.5157                45.0220                20.8465

                    28                     29                     30
                     A                      A                      A
 Frequencies --   433.5536               451.2614               487.2377
 Red. masses --     2.9750                 3.2762                 5.9449
 Frc consts  --     0.3295                 0.3931                 0.8315
 IR Inten    --    14.6745                19.6881                15.2734

                    31                     32                     33
                     A                      A                      A
 Frequencies --   491.1856               516.3626               549.0663
 Red. masses --     3.2542                 4.0649                 2.5684
 Frc consts  --     0.4626                 0.6386                 0.4562
 IR Inten    --     8.9643                25.8631                 4.5129

                    34                     35                     36
                     A                      A                      A
 Frequencies --   566.3908               611.4446               625.4613
 Red. masses --     2.6065                 4.1475                 1.8083
 Frc consts  --     0.4927                 0.9136                 0.4168
 IR Inten    --     6.8020                82.0225                12.7053

                    37                     38                     39
                     A                      A                      A
 Frequencies --   630.4911               703.9356               714.2178
 Red. masses --     1.5808                 1.5512                 3.2070
 Frc consts  --     0.3702                 0.4529                 0.9638
 IR Inten    --    16.4768                53.1386                43.7112

                    40                     41                     42
                     A                      A                      A
 Frequencies --   731.4400               741.9018               771.2994
 Red. masses --     3.4992                 2.7213                 3.2471
 Frc consts  --     1.1030                 0.8825                 1.1381
 IR Inten    --    47.7490                13.2143                32.6819

                    43                     44                     45
                     A                      A                      A
 Frequencies --   830.9882               879.7013               922.7912
 Red. masses --     2.1197                 2.4570                 2.2952
 Frc consts  --     0.8624                 1.1203                 1.1515
 IR Inten    --    20.8180                71.1149                45.9761

                    46                     47                     48
                     A                      A                      A
 Frequencies --   939.1608               978.5535               996.7096
 Red. masses --     3.1767                 2.5290                 1.8582
 Frc consts  --     1.6509                 1.4268                 1.0877
 IR Inten    --     8.7234                 1.4443                64.5796

                    49                     50                     51
                     A                      A                      A
 Frequencies --  1002.5979              1014.2736              1044.7590
 Red. masses --     1.3869                 2.0155                 2.9371
 Frc consts  --     0.8214                 1.2217                 1.8889
 IR Inten    --     7.0165                28.3406                14.6248

                    52                     53                     54
                     A                      A                      A
 Frequencies --  1059.4560              1080.3632              1087.2186
 Red. masses --     3.5248                 1.7707                 1.4348
 Frc consts  --     2.3310                 1.2177                 0.9992
 IR Inten    --    38.3901                 4.8845                17.4336

                    55                     56                     57
                     A                      A                      A
 Frequencies --  1098.7853              1110.3303              1112.6918
 Red. masses --     2.1583                 3.7403                 2.2879
 Frc consts  --     1.5353                 2.7168                 1.6689
 IR Inten    --    37.3738               181.2458                 5.7709

                    58                     59                     60
                     A                      A                      A
 Frequencies --  1124.1841              1134.8084              1167.2472
 Red. masses --     2.4722                 1.2370                 1.8309
 Frc consts  --     1.8408                 0.9385                 1.4697
 IR Inten    --    12.8811                 2.1236                70.5394

                    61                     62                     63
                     A                      A                      A
 Frequencies --  1181.8081              1184.6077              1244.5994
 Red. masses --     2.1620                 1.3891                 1.1503
 Frc consts  --     1.7791                 1.1485                 1.0499
 IR Inten    --    20.7104                 7.9994                13.2329

                    64                     65                     66
                     A                      A                      A
 Frequencies --  1260.8319              1274.2808              1277.5667
 Red. masses --     1.3746                 2.8629                 4.2242
 Frc consts  --     1.2875                 2.7390                 4.0623
 IR Inten    --    18.0759               104.6439                62.7826

                    67                     68                     69
                     A                      A                      A
 Frequencies --  1305.7830              1323.7084              1362.5189
 Red. masses --     1.4445                 1.2634                 1.3226
 Frc consts  --     1.4512                 1.3043                 1.4466
 IR Inten    --    39.0001                36.9893                 4.1155

                    70                     71                     72
                     A                      A                      A
 Frequencies --  1388.1721              1396.5427              1403.5934
 Red. masses --     1.2005                 1.2724                 1.2978
 Frc consts  --     1.3630                 1.4621                 1.5064
 IR Inten    --     8.6502                23.6564                20.0494

                    73                     74                     75
                     A                      A                      A
 Frequencies --  1418.6660              1452.3172              1457.1413
 Red. masses --     1.3788                 2.1439                 1.1941
 Frc consts  --     1.6350                 2.6642                 1.4937
 IR Inten    --     8.2240                87.2731                18.6029

                    76                     77                     78
                     A                      A                      A
 Frequencies --  1461.2409              1476.3459              1480.7857
 Red. masses --     1.2418                 1.0594                 1.1992
 Frc consts  --     1.5623                 1.3604                 1.5493
 IR Inten    --    60.5905                15.5374                 5.7599

                    79                     80                     81
                     A                      A                      A
 Frequencies --  1483.3110              1501.6518              1509.5114
 Red. masses --     1.3268                 1.1766                 1.0417
 Frc consts  --     1.7200                 1.5632                 1.3985
 IR Inten    --    12.0476                12.9612                 3.1040

                    82                     83                     84
                     A                      A                      A
 Frequencies --  1519.9554              1523.2441              1530.1719
 Red. masses --     1.0784                 1.0851                 1.0752
 Frc consts  --     1.4679                 1.4834                 1.4833
 IR Inten    --     7.2758                27.0995                12.1917

                    85                     86                     87
                     A                      A                      A
 Frequencies --  1532.1435              1542.3884              1564.8444
 Red. masses --     1.0516                 1.0845                 1.2334
 Frc consts  --     1.4544                 1.5200                 1.7795
 IR Inten    --    15.0302                23.1999                36.8075

                    88                     89                     90
                     A                      A                      A
 Frequencies --  1629.1089              1669.1442              1723.9183
 Red. masses --     1.4595                 1.5170                 1.8987
 Frc consts  --     2.2822                 2.4902                 3.3246
 IR Inten    --    20.5053                98.3799               487.3414

                    91                     92                     93
                     A                      A                      A
 Frequencies --  1731.7488              1759.9927              3039.3532
 Red. masses --     2.4393                 9.1178                 1.0574
 Frc consts  --     4.3101                16.6403                 5.7551
 IR Inten    --   356.6363               300.3569                23.4556

                    94                     95                     96
                     A                      A                      A
 Frequencies --  3043.5295              3052.2646              3056.6403
 Red. masses --     1.0415                 1.0403                 1.0734
 Frc consts  --     5.6843                 5.7101                 5.9089
 IR Inten    --    23.2520                55.4811                 4.1621

                    97                     98                     99
                     A                      A                      A
 Frequencies --  3074.2130              3083.6297              3091.0027
 Red. masses --     1.0709                 1.1011                 1.0295
 Frc consts  --     5.9628                 6.1688                 5.7956
 IR Inten    --    12.2564                28.4557                 1.1526

                   100                    101                    102
                     A                      A                      A
 Frequencies --  3093.8366              3106.7537              3117.8964
 Red. masses --     1.1029                 1.1042                 1.0946
 Frc consts  --     6.2200                 6.2790                 6.2696
 IR Inten    --    23.7852                18.4659                 5.7857

                   103                    104                    105
                     A                      A                      A
 Frequencies --  3118.3388              3140.3806              3188.2097
 Red. masses --     1.0875                 1.0951                 1.1069
 Frc consts  --     6.2304                 6.3633                 6.6290
 IR Inten    --    10.7725                 2.5131                 0.6619

                   106                    107                    108
                     A                      A                      A
 Frequencies --  3197.1599              3205.9933              3206.8829
 Red. masses --     1.0944                 1.0978                 1.1087
 Frc consts  --     6.5911                 6.6479                 6.7178
 IR Inten    --    16.7811                 1.0865                 0.3383

                   109                    110                    111
                     A                      A                      A
 Frequencies --  3478.3060              3490.8140              3520.3559
 Red. masses --     1.0761                 1.0748                 1.0606
 Frc consts  --     7.6705                 7.7165                 7.7441
 IR Inten    --   177.9693                40.0736               584.3073

                   112                    113                    114
                     A                      A                      A
 Frequencies --  3619.1228              3689.4044              3726.8485
 Red. masses --     1.0477                 1.0968                 1.1059
 Frc consts  --     8.0853                 8.7963                 9.0499
 IR Inten    --    94.6385               179.6970                91.9737

 - Thermochemistry -
 -------------------
 Temperature   298.150 Kelvin.  Pressure   1.00000 Atm.
 Atom     1 has atomic number  6 and mass  12.00000

 Molecular mass:   280.14434 amu.
 Principal axes and moments of inertia in atomic units:
                           1         2         3
     Eigenvalues --  3734.093167183.485059226.49526
           X            0.99980  -0.01645  -0.01116
           Y            0.01663   0.99973   0.01599
           Z            0.01090  -0.01617   0.99981
 This molecule is an asymmetric top.
 Rotational symmetry number  1.
 Warning -- assumption of classical behavior for rotation
           may cause significant error
 Rotational temperatures (Kelvin)      0.02320     0.01206     0.00939
 Rotational constants (GHZ):           0.48331     0.25123     0.19560
 Zero-point vibrational energy     901614.5 (Joules/Mol)
                                  215.49103 (Kcal/Mol)
 Warning -- explicit consideration of  35 degrees of freedom as
           vibrations may cause significant error
 Vibrational temperatures:     26.06    30.15    56.24    82.24    87.28
          (Kelvin)            103.87   117.60   126.83   163.38   166.17
                              211.56   220.01   245.23   262.44   276.16
                              299.98   331.55   343.05   361.91   386.91
                              431.64   437.44   456.17   543.28   549.37
                              591.87   595.84   623.79   649.26   701.03
                              706.71   742.93   789.98   814.91   879.73
                              899.90   907.13  1012.81  1027.60  1052.38
                             1067.43  1109.73  1195.61  1265.69  1327.69
                             1351.24  1407.92  1434.04  1442.51  1459.31
                             1503.17  1524.32  1554.40  1564.26  1580.91
                             1597.52  1600.91  1617.45  1632.73  1679.41
                             1700.36  1704.38  1790.70  1814.05  1833.40
                             1838.13  1878.73  1904.52  1960.36  1997.27
                             2009.31  2019.46  2041.14  2089.56  2096.50
                             2102.40  2124.13  2130.52  2134.15  2160.54
                             2171.85  2186.87  2191.61  2201.57  2204.41
                             2219.15  2251.46  2343.92  2401.52  2480.33
                             2491.60  2532.23  4372.95  4378.95  4391.52
                             4397.82  4423.10  4436.65  4447.26  4451.34
                             4469.92  4485.95  4486.59  4518.30  4587.12
                             4599.99  4612.70  4613.98  5004.50  5022.50
                             5065.00  5207.10  5308.22  5362.10

 Zero-point correction=                           0.343407 (Hartree/Particle)
 Thermal correction to Energy=                    0.365701
 Thermal correction to Enthalpy=                  0.366645
 Thermal correction to Gibbs Free Energy=         0.290068
 Sum of electronic and zero-point Energies=          -1253.242281
 Sum of electronic and thermal Energies=             -1253.219987
 Sum of electronic and thermal Enthalpies=           -1253.219042
 Sum of electronic and thermal Free Energies=        -1253.295619

                     E (Thermal)             CV                S
                      KCal/Mol        Cal/Mol-Kelvin    Cal/Mol-Kelvin
 Total                  229.481             79.886            161.170
 Electronic               0.000              0.000              0.000
 Translational            0.889              2.981             42.789
 Rotational               0.889              2.981             33.870
 Vibrational            227.703             73.925             84.512
 Vibration     1          0.593              1.986              6.831
 Vibration     2          0.593              1.986              6.541
 Vibration     3          0.594              1.981              5.305
 Vibration     4          0.596              1.975              4.553
 Vibration     5          0.597              1.973              4.436
 Vibration     6          0.598              1.967              4.093
 Vibration     7          0.600              1.962              3.849
 Vibration     8          0.601              1.958              3.701
 Vibration     9          0.607              1.938              3.207
 Vibration    10          0.608              1.937              3.174
 Vibration    11          0.617              1.906              2.710
 Vibration    12          0.619              1.899              2.636
 Vibration    13          0.626              1.879              2.431
 Vibration    14          0.630              1.864              2.304
 Vibration    15          0.634              1.851              2.209
 Vibration    16          0.642              1.828              2.057
 Vibration    17          0.652              1.794              1.876
 Vibration    18          0.656              1.782              1.815
 Vibration    19          0.664              1.760              1.720
 Vibration    20          0.673              1.730              1.603
 Vibration    21          0.693              1.674              1.417
 Vibration    22          0.695              1.666              1.395
 Vibration    23          0.704              1.641              1.325
 Vibration    24          0.748              1.518              1.049
 Vibration    25          0.751              1.509              1.032
 Vibration    26          0.775              1.446              0.922
 Vibration    27          0.778              1.440              0.912
 Vibration    28          0.794              1.397              0.847
 Vibration    29          0.810              1.358              0.792
 Vibration    30          0.843              1.278              0.691
 Vibration    31          0.847              1.270              0.681
 Vibration    32          0.871              1.214              0.618
 Vibration    33          0.904              1.142              0.546
 Vibration    34          0.922              1.104              0.511
 Vibration    35          0.971              1.008              0.430

 Normal termination of Gaussian 09 at Sat Feb 17 01:55:26 2018.
