 Gaussian 09, Revision C.01,
 Gaussian 09:  AM64L-G09RevC.01 23-Sep-2011

 ---------------------------------------------------------
 #B3LYP/6-31G* Integral=(Grid=UltraFine) freq Opt pop=none
 ---------------------------------------------------------

 99/9=1/99;
 ----------------------------
 Optimization for frag4-conf2
 ----------------------------
 Charge =  0 Multiplicity = 1

 SCF Done:  E(RB3LYP) =  -573.260361066     A.U. after   14 cycles
 SCF Done:  E(RB3LYP) =  -573.263968731     A.U. after   14 cycles
 SCF Done:  E(RB3LYP) =  -573.263776036     A.U. after   13 cycles
 SCF Done:  E(RB3LYP) =  -573.264334321     A.U. after   13 cycles
 SCF Done:  E(RB3LYP) =  -573.264626802     A.U. after   12 cycles
 SCF Done:  E(RB3LYP) =  -573.264748228     A.U. after   12 cycles
 SCF Done:  E(RB3LYP) =  -573.264808404     A.U. after   13 cycles
 SCF Done:  E(RB3LYP) =  -573.264873126     A.U. after   12 cycles
 SCF Done:  E(RB3LYP) =  -573.264905966     A.U. after   10 cycles
 SCF Done:  E(RB3LYP) =  -573.264922227     A.U. after   10 cycles
 SCF Done:  E(RB3LYP) =  -573.265217015     A.U. after   11 cycles
 SCF Done:  E(RB3LYP) =  -573.265323741     A.U. after   11 cycles
 SCF Done:  E(RB3LYP) =  -573.265307026     A.U. after   11 cycles
 SCF Done:  E(RB3LYP) =  -573.265326749     A.U. after   11 cycles
 SCF Done:  E(RB3LYP) =  -573.265326030     A.U. after    8 cycles
 SCF Done:  E(RB3LYP) =  -573.265333631     A.U. after    9 cycles
 SCF Done:  E(RB3LYP) =  -573.265342555     A.U. after   10 cycles
 SCF Done:  E(RB3LYP) =  -573.265342565     A.U. after    7 cycles
 SCF Done:  E(RB3LYP) =  -573.265342580     A.U. after    7 cycles
 Optimization completed.
    -- Stationary point found.
 Normal termination of Gaussian 09 at Fri Feb 16 17:44:18 2018.

 --------------------------------------------------------------------
 #N Geom=AllCheck Guess=TCheck SCRF=Check GenChk RB3LYP/6-31G(d) Freq
 --------------------------------------------------------------------

 Structure from the checkpoint file:  frag4-conf2.chk
 ----------------------------
 Optimization for frag4-conf2
 ----------------------------
 Charge =  0 Multiplicity = 1

                         Standard orientation:
 ---------------------------------------------------------------------
 Center     Atomic      Atomic             Coordinates (Angstroms)
 Number     Number       Type             X           Y           Z
 ---------------------------------------------------------------------
      1          6           0        1.503604   -0.026087   -0.443290
      2          6           0       -1.807725   -0.988569   -0.058337
      3          6           0       -0.404690    2.337841    0.643461
      4          6           0        0.070515    2.042199   -0.788047
      5          6           0       -1.450423    1.244810    0.903731
      6          6           0        0.103625    0.498723   -0.833378
      7          6           0       -1.391442   -2.044745   -1.071632
      8          6           0        2.811003   -1.310185    1.209802
      9          7           0       -0.988685    0.112386    0.073772
     10          7           0        1.568947   -0.757999    0.700436
     11          8           0        2.467865    0.234689   -1.154447
     12          8           0       -2.819880   -1.100990    0.623536
     13          1           0        0.432031    2.242567    1.345701
     14          1           0       -0.821538    3.342445    0.758229
     15          1           0       -0.662677    2.409878   -1.515193
     16          1           0        1.044485    2.468093   -1.037494
     17          1           0       -1.525043    0.948658    1.954074
     18          1           0       -2.455366    1.544732    0.582300
     19          1           0       -0.076255    0.134777   -1.849019
     20          1           0       -0.331563   -2.306754   -0.991263
     21          1           0       -1.569467   -1.691107   -2.094826
     22          1           0       -2.002810   -2.932124   -0.902137
     23          1           0        3.596197   -1.063579    0.493382
     24          1           0        2.744639   -2.399273    1.312945
     25          1           0        3.066823   -0.878962    2.184955
     26          1           0        0.708030   -0.893563    1.212313
 ---------------------------------------------------------------------

 SCF Done:  E(RB3LYP) =  -573.265342580     A.U. after    1 cycles

 Isotropic polarizability for W=    0.000000       98.45 Bohr**3.
 End of Minotr Frequency-dependent properties file   721 does not exist.

                     1                      2                      3
                     A                      A                      A
 Frequencies --    51.0273                66.0086                78.2430
 Red. masses --     5.2539                 3.4698                 4.4395
 Frc consts  --     0.0081                 0.0089                 0.0160
 IR Inten    --     7.7806                 0.1338                 4.6311

                     4                      5                      6
                     A                      A                      A
 Frequencies --    82.6503               127.3223               149.3153
 Red. masses --     1.1088                 3.0916                 2.7408
 Frc consts  --     0.0045                 0.0295                 0.0360
 IR Inten    --     0.2659                 0.8361                 1.0976

                     7                      8                      9
                     A                      A                      A
 Frequencies --   154.1691               183.2142               217.4063
 Red. masses --     1.0405                 3.2637                 3.2492
 Frc consts  --     0.0146                 0.0645                 0.0905
 IR Inten    --     0.3344                 9.7484                 4.2991

                    10                     11                     12
                     A                      A                      A
 Frequencies --   248.4587               312.9374               340.3018
 Red. masses --     2.7465                 2.8158                 4.1310
 Frc consts  --     0.0999                 0.1625                 0.2819
 IR Inten    --     4.6291                 4.5063                19.0263

                    13                     14                     15
                     A                      A                      A
 Frequencies --   391.1653               405.7520               544.5390
 Red. masses --     3.6912                 7.9975                 2.7407
 Frc consts  --     0.3328                 0.7758                 0.4788
 IR Inten    --    12.6912                 7.2898                25.0100

                    16                     17                     18
                     A                      A                      A
 Frequencies --   570.6804               584.5120               602.8377
 Red. masses --     2.1056                 2.2561                 2.5739
 Frc consts  --     0.4040                 0.4541                 0.5511
 IR Inten    --    26.6033                 2.2155                10.1556

                    19                     20                     21
                     A                      A                      A
 Frequencies --   628.2105               642.0871               758.5561
 Red. masses --     3.0261                 2.0941                 3.1403
 Frc consts  --     0.7036                 0.5087                 1.0646
 IR Inten    --     2.2476                29.6589                 1.0874

                    22                     23                     24
                     A                      A                      A
 Frequencies --   851.9228               867.3229               884.3245
 Red. masses --     3.0518                 2.5294                 2.0204
 Frc consts  --     1.3050                 1.1211                 0.9309
 IR Inten    --     4.1859                 5.5783                 1.5429

                    25                     26                     27
                     A                      A                      A
 Frequencies --   919.1220               927.3301               960.8870
 Red. masses --     2.1489                 2.6261                 2.0421
 Frc consts  --     1.0696                 1.3306                 1.1109
 IR Inten    --     8.1977                 4.0556                 3.0788

                    28                     29                     30
                     A                      A                      A
 Frequencies --  1002.0049              1031.9268              1064.3186
 Red. masses --     2.1792                 1.9580                 1.7288
 Frc consts  --     1.2891                 1.2285                 1.1538
 IR Inten    --     7.3215                 8.3827                 5.7979

                    31                     32                     33
                     A                      A                      A
 Frequencies --  1081.7750              1096.9922              1131.8851
 Red. masses --     2.3548                 2.0125                 1.9543
 Frc consts  --     1.6236                 1.4269                 1.4752
 IR Inten    --     2.3763                 0.5076                 3.1894

                    34                     35                     36
                     A                      A                      A
 Frequencies --  1162.4740              1179.3246              1187.2327
 Red. masses --     1.3043                 1.7052                 1.6429
 Frc consts  --     1.0385                 1.3973                 1.3644
 IR Inten    --     0.8397                35.9066                17.9645

                    37                     38                     39
                     A                      A                      A
 Frequencies --  1205.2516              1220.1119              1253.2258
 Red. masses --     1.5747                 2.5295                 1.5946
 Frc consts  --     1.3477                 2.2187                 1.4756
 IR Inten    --    16.3209                32.0662                30.4685

                    40                     41                     42
                     A                      A                      A
 Frequencies --  1278.6550              1297.4867              1337.3139
 Red. masses --     1.4539                 1.4615                 1.3436
 Frc consts  --     1.4005                 1.4496                 1.4157
 IR Inten    --     9.9380                12.2505                 2.4005

                    43                     44                     45
                     A                      A                      A
 Frequencies --  1352.8860              1369.7569              1385.1991
 Red. masses --     1.4135                 1.3110                 1.7915
 Frc consts  --     1.5243                 1.4492                 2.0253
 IR Inten    --    11.9791                 3.2404                60.0217

                    46                     47                     48
                     A                      A                      A
 Frequencies --  1396.4245              1430.0089              1460.5367
 Red. masses --     1.9188                 1.8307                 1.1761
 Frc consts  --     2.2046                 2.2057                 1.4782
 IR Inten    --   126.6772               178.3642                17.8948

                    49                     50                     51
                     A                      A                      A
 Frequencies --  1503.3521              1516.0529              1519.4326
 Red. masses --     1.0735                 1.0662                 1.2022
 Frc consts  --     1.4295                 1.4439                 1.6352
 IR Inten    --     6.7383                 2.0814                80.0668

                    52                     53                     54
                     A                      A                      A
 Frequencies --  1522.1498              1530.0324              1530.6204
 Red. masses --     1.0849                 1.0534                 1.0884
 Frc consts  --     1.4810                 1.4529                 1.5024
 IR Inten    --     9.1827                 9.0845                 2.5003

                    55                     56                     57
                     A                      A                      A
 Frequencies --  1553.0847              1581.6672              1767.7211
 Red. masses --     1.0923                 1.6868                10.2825
 Frc consts  --     1.5523                 2.4862                18.9311
 IR Inten    --     2.7438               135.5277               402.6396

                    58                     59                     60
                     A                      A                      A
 Frequencies --  1782.7075              3049.0567              3057.1211
 Red. masses --     9.9034                 1.0365                 1.0415
 Frc consts  --    18.5436                 5.6775                 5.7352
 IR Inten    --   142.4302                61.9104                 2.0715

                    61                     62                     63
                     A                      A                      A
 Frequencies --  3059.0246              3063.8327              3072.0193
 Red. masses --     1.0682                 1.0678                 1.0656
 Frc consts  --     5.8895                 5.9056                 5.9250
 IR Inten    --    26.1244                12.9702                25.0915

                    64                     65                     66
                     A                      A                      A
 Frequencies --  3098.7799              3102.0234              3108.7845
 Red. masses --     1.0847                 1.1057                 1.0982
 Frc consts  --     6.1370                 6.2689                 6.2534
 IR Inten    --    17.8517                29.0742                20.5796

                    67                     68                     69
                     A                      A                      A
 Frequencies --  3121.0655              3125.4165              3148.6818
 Red. masses --     1.0979                 1.1013                 1.0989
 Frc consts  --     6.3012                 6.3383                 6.4192
 IR Inten    --     9.0575                34.4058                10.2612

                    70                     71                     72
                     A                      A                      A
 Frequencies --  3172.6055              3174.8114              3617.5740
 Red. masses --     1.0990                 1.1013                 1.0766
 Frc consts  --     6.5175                 6.5402                 8.3013
 IR Inten    --     1.4449                 7.9344                37.2804

 - Thermochemistry -
 -------------------
 Temperature   298.150 Kelvin.  Pressure   1.00000 Atm.
 Atom     1 has atomic number  6 and mass  12.00000

 Molecular mass:   170.10553 amu.
 Principal axes and moments of inertia in atomic units:
                           1         2         3
     Eigenvalues --  1539.313422356.015022994.10350
           X            0.99835  -0.04652   0.03359
           Y            0.04593   0.99878   0.01823
           Z           -0.03440  -0.01665   0.99927
 This molecule is an asymmetric top.
 Rotational symmetry number  1.
 Warning -- assumption of classical behavior for rotation
           may cause significant error
 Rotational temperatures (Kelvin)      0.05627     0.03676     0.02893
 Rotational constants (GHZ):           1.17243     0.76601     0.60277
 Zero-point vibrational energy     587681.7 (Joules/Mol)
                                  140.45930 (Kcal/Mol)
 Warning -- explicit consideration of  18 degrees of freedom as
           vibrations may cause significant error
 Vibrational temperatures:     73.42    94.97   112.57   118.92   183.19
          (Kelvin)            214.83   221.81   263.60   312.80   357.48
                              450.25   489.62   562.80   583.79   783.47
                              821.08   840.98   867.35   903.85   923.82
                             1091.39  1225.73  1247.88  1272.34  1322.41
                             1334.22  1382.50  1441.66  1484.71  1531.32
                             1556.43  1578.33  1628.53  1672.54  1696.78
                             1708.16  1734.09  1755.47  1803.11  1839.70
                             1866.79  1924.09  1946.50  1970.77  1992.99
                             2009.14  2057.46  2101.38  2162.99  2181.26
                             2186.12  2190.03  2201.37  2202.22  2234.54
                             2275.66  2543.35  2564.92  4386.91  4398.51
                             4401.25  4408.17  4419.95  4458.45  4463.11
                             4472.84  4490.51  4496.77  4530.25  4564.67
                             4567.84  5204.88

 Zero-point correction=                           0.223836 (Hartree/Particle)
 Thermal correction to Energy=                    0.236606
 Thermal correction to Enthalpy=                  0.237550
 Thermal correction to Gibbs Free Energy=         0.184106
 Sum of electronic and zero-point Energies=           -573.041506
 Sum of electronic and thermal Energies=              -573.028736
 Sum of electronic and thermal Enthalpies=            -573.027792
 Sum of electronic and thermal Free Energies=         -573.081237

                     E (Thermal)             CV                S
                      KCal/Mol        Cal/Mol-Kelvin    Cal/Mol-Kelvin
 Total                  148.473             45.933            112.484
 Electronic               0.000              0.000              0.000
 Translational            0.889              2.981             41.302
 Rotational               0.889              2.981             30.763
 Vibrational            146.695             39.972             40.419
 Vibration     1          0.595              1.977              4.777
 Vibration     2          0.597              1.970              4.269
 Vibration     3          0.600              1.964              3.934
 Vibration     4          0.600              1.961              3.827
 Vibration     5          0.611              1.926              2.986
 Vibration     6          0.618              1.903              2.681
 Vibration     7          0.620              1.898              2.620
 Vibration     8          0.631              1.863              2.295
 Vibration     9          0.646              1.815              1.981
 Vibration    10          0.662              1.765              1.741
 Vibration    11          0.701              1.649              1.347
 Vibration    12          0.720              1.595              1.211
 Vibration    13          0.759              1.489              0.996
 Vibration    14          0.771              1.458              0.942
 Vibration    15          0.900              1.152              0.556
 Vibration    16          0.927              1.095              0.503
 Vibration    17          0.941              1.065              0.477
 Vibration    18          0.961              1.026              0.445

 Optimization completed.
    -- Stationary point found.
 Normal termination of Gaussian 09 at Fri Feb 16 18:08:30 2018.
