 Gaussian 09, Revision C.01,
 Gaussian 09:  AM64L-G09RevC.01 23-Sep-2011

 ----------------------------------------------------------------------
 #HF/6-31G* Geom=AllCheck Guess=Read Pop=(MK,ReadRadii) Integral=(Grid=
 UltraFine) iop(6/33=2)
 ----------------------------------------------------------------------

 Structure from the checkpoint file:  frag4-conf2.chk
 ----------------------------
 Optimization for frag4-conf2
 ----------------------------
 Charge =  0 Multiplicity = 1

                         Standard orientation:
 ---------------------------------------------------------------------
 Center     Atomic      Atomic             Coordinates (Angstroms)
 Number     Number       Type             X           Y           Z
 ---------------------------------------------------------------------
      1          6           0        1.503604   -0.026087   -0.443290
      2          6           0       -1.807725   -0.988569   -0.058337
      3          6           0       -0.404690    2.337841    0.643461
      4          6           0        0.070515    2.042199   -0.788047
      5          6           0       -1.450423    1.244810    0.903731
      6          6           0        0.103625    0.498723   -0.833378
      7          6           0       -1.391442   -2.044745   -1.071632
      8          6           0        2.811003   -1.310185    1.209802
      9          7           0       -0.988685    0.112386    0.073772
     10          7           0        1.568947   -0.757999    0.700436
     11          8           0        2.467865    0.234689   -1.154447
     12          8           0       -2.819880   -1.100990    0.623536
     13          1           0        0.432031    2.242567    1.345701
     14          1           0       -0.821538    3.342445    0.758229
     15          1           0       -0.662677    2.409878   -1.515193
     16          1           0        1.044485    2.468093   -1.037494
     17          1           0       -1.525043    0.948658    1.954074
     18          1           0       -2.455366    1.544732    0.582300
     19          1           0       -0.076255    0.134777   -1.849019
     20          1           0       -0.331563   -2.306754   -0.991263
     21          1           0       -1.569467   -1.691107   -2.094826
     22          1           0       -2.002810   -2.932124   -0.902137
     23          1           0        3.596197   -1.063579    0.493382
     24          1           0        2.744639   -2.399273    1.312945
     25          1           0        3.066823   -0.878962    2.184955
     26          1           0        0.708030   -0.893563    1.212313
 ---------------------------------------------------------------------

 SCF Done:  E(RHF) =  -569.752921618     A.U. after   14 cycles

 The electronic state is 1-A.
 Alpha  occ. eigenvalues --  -20.53119 -20.52660 -15.59846 -15.59698 -11.36010
 Alpha  occ. eigenvalues --  -11.35646 -11.29417 -11.27048 -11.26595 -11.24527
 Alpha  occ. eigenvalues --  -11.24380 -11.24209  -1.38400  -1.37767  -1.26483
 Alpha  occ. eigenvalues --   -1.22894  -1.08066  -1.02943  -1.00018  -0.95557
 Alpha  occ. eigenvalues --   -0.87853  -0.82374  -0.79251  -0.76771  -0.72009
 Alpha  occ. eigenvalues --   -0.68639  -0.65615  -0.64796  -0.62821  -0.62382
 Alpha  occ. eigenvalues --   -0.60863  -0.59668  -0.59163  -0.56588  -0.55863
 Alpha  occ. eigenvalues --   -0.55631  -0.54998  -0.53326  -0.51126  -0.50307
 Alpha  occ. eigenvalues --   -0.49049  -0.48543  -0.43495  -0.42267  -0.39187
 Alpha  occ. eigenvalues --   -0.37455
 Alpha virt. eigenvalues --    0.17688   0.18260   0.20549   0.23555   0.24934
 Alpha virt. eigenvalues --    0.26783   0.27671   0.29068   0.29693   0.30193
 Alpha virt. eigenvalues --    0.31412   0.31889   0.32052   0.32780   0.33069

 Mulliken atomic charges:
              1
     1  C    0.764006
     2  C    0.749429
     3  C   -0.364009
     4  C   -0.345063
     5  C   -0.076471
     6  C   -0.026398
     7  C   -0.597430
     8  C   -0.287892
     9  N   -0.736329
    10  N   -0.800131
    11  O   -0.639552
    12  O   -0.610493
    13  H    0.179374
    14  H    0.188168
    15  H    0.182598
    16  H    0.222346
    17  H    0.191129
    18  H    0.190041
    19  H    0.221735
    20  H    0.193032
    21  H    0.195918
    22  H    0.220959
    23  H    0.230082
    24  H    0.171781
    25  H    0.171573
    26  H    0.411598
 Sum of Mulliken atomic charges =   0.00000

 Dipole moment (field-independent basis, Debye):
    X=              0.4991    Y=              0.4795    Z=              0.7175  Tot=              0.9969
 Quadrupole moment (field-independent basis, Debye-Ang):
   XX=            -90.9390   YY=            -66.7461   ZZ=            -71.4268
   XY=             -8.1799   XZ=             12.8019   YZ=              2.1561

 Normal termination of Gaussian 09 at Sun Feb 18 17:07:32 2018.
