 Gaussian 09, Revision C.01,
 Gaussian 09:  AM64L-G09RevC.01 23-Sep-2011

 ---------------------------------------------------------
 #B3LYP/6-31G* Integral=(Grid=UltraFine) freq Opt pop=none
 ---------------------------------------------------------

 99/9=1/99;
 -----------------------------
 Optimization for frag46-conf0
 -----------------------------
 Charge =  0 Multiplicity = 1

 SCF Done:  E(RB3LYP) =  -860.544428764     A.U. after   14 cycles
 SCF Done:  E(RB3LYP) =  -860.545721489     A.U. after   12 cycles
 SCF Done:  E(RB3LYP) =  -860.545645277     A.U. after   13 cycles
 SCF Done:  E(RB3LYP) =  -860.545936377     A.U. after   12 cycles
 SCF Done:  E(RB3LYP) =  -860.546055760     A.U. after   12 cycles
 SCF Done:  E(RB3LYP) =  -860.546112552     A.U. after   11 cycles
 SCF Done:  E(RB3LYP) =  -860.546149133     A.U. after   11 cycles
 SCF Done:  E(RB3LYP) =  -860.546160212     A.U. after    9 cycles
 SCF Done:  E(RB3LYP) =  -860.546161309     A.U. after    8 cycles
 SCF Done:  E(RB3LYP) =  -860.546161394     A.U. after    8 cycles
 SCF Done:  E(RB3LYP) =  -860.546161409     A.U. after    7 cycles
 Optimization completed.
    -- Stationary point found.
 Normal termination of Gaussian 09 at Fri Aug 24 15:04:21 2018.

 --------------------------------------------------------------------
 #N Geom=AllCheck Guess=TCheck SCRF=Check GenChk RB3LYP/6-31G(d) Freq
 --------------------------------------------------------------------

 Structure from the checkpoint file:  frag46-conf0.chk
 -----------------------------
 Optimization for frag46-conf0
 -----------------------------
 Charge =  0 Multiplicity = 1

                         Standard orientation:
 ---------------------------------------------------------------------
 Center     Atomic      Atomic             Coordinates (Angstroms)
 Number     Number       Type             X           Y           Z
 ---------------------------------------------------------------------
      1          7           0       -3.357283    0.126559    0.289603
      2          6           0       -2.240048   -0.608696   -0.032431
      3          8           0       -2.307392   -1.795293   -0.323223
      4          6           0       -0.933304    0.138259   -0.037705
      5          6           0       -0.841179    1.534371   -0.110100
      6          6           0        0.409101    2.152686   -0.115399
      7          6           0        1.575750    1.391229   -0.046508
      8          6           0        1.471580    0.000457    0.014279
      9         17           0        2.937304   -0.967440    0.092295
     10          6           0        0.234170   -0.633218    0.011925
     11          1           0       -4.203501   -0.413754    0.415284
     12          1           0       -3.272014    0.960009    0.853463
     13          1           0       -1.737360    2.140932   -0.199870
     14          1           0        0.479607    3.234668   -0.181012
     15          1           0        2.552149    1.863853   -0.047280
     16          1           0        0.150652   -1.713320    0.044586
 ---------------------------------------------------------------------

 SCF Done:  E(RB3LYP) =  -860.546161409     A.U. after    1 cycles

 Isotropic polarizability for W=    0.000000       87.95 Bohr**3.
 End of Minotr Frequency-dependent properties file   721 does not exist.

                     1                      2                      3
                     A                      A                      A
 Frequencies --    59.1178               147.6393               158.4138
 Red. masses --     5.7851                 4.9420                 9.3045
 Frc consts  --     0.0119                 0.0635                 0.1376
 IR Inten    --     6.5285                 2.4277                 2.6238

                     4                      5                      6
                     A                      A                      A
 Frequencies --   199.7316               303.8867               372.3488
 Red. masses --     4.8574                 4.9355                 7.0550
 Frc consts  --     0.1142                 0.2685                 0.5763
 IR Inten    --     0.1569                 5.3936                 0.5608

                     7                      8                      9
                     A                      A                      A
 Frequencies --   399.5503               427.5083               430.9760
 Red. masses --     3.1499                 3.6627                 1.5260
 Frc consts  --     0.2963                 0.3944                 0.1670
 IR Inten    --    36.3935                13.5208               153.4007

                    10                     11                     12
                     A                      A                      A
 Frequencies --   477.6361               532.4131               579.5868
 Red. masses --     3.1874                 2.9307                 1.6419
 Frc consts  --     0.4284                 0.4895                 0.3250
 IR Inten    --     9.7853                 5.1707                40.6255

                    13                     14                     15
                     A                      A                      A
 Frequencies --   621.4150               688.6687               691.9886
 Red. masses --     3.7224                 4.4541                 3.6603
 Frc consts  --     0.8469                 1.2446                 1.0327
 IR Inten    --    36.1597                12.0911                21.5325

                    16                     17                     18
                     A                      A                      A
 Frequencies --   760.3666               815.7566               832.5140
 Red. masses --     2.3215                 1.9069                 5.5087
 Frc consts  --     0.7908                 0.7476                 2.2495
 IR Inten    --    63.9004                 8.0752                24.6329

                    19                     20                     21
                     A                      A                      A
 Frequencies --   920.2077               938.6911               980.7971
 Red. masses --     1.3557                 1.4412                 1.2936
 Frc consts  --     0.6764                 0.7482                 0.7332
 IR Inten    --     1.7596                 7.3486                 0.1789

                    22                     23                     24
                     A                      A                      A
 Frequencies --  1016.0952              1102.7789              1108.2687
 Red. masses --     6.0661                 1.7768                 2.0462
 Frc consts  --     3.6900                 1.2731                 1.4808
 IR Inten    --     1.9393                 1.8346                22.0880

                    25                     26                     27
                     A                      A                      A
 Frequencies --  1125.0734              1161.6558              1205.0024
 Red. masses --     1.8859                 2.5320                 1.1227
 Frc consts  --     1.4065                 2.0131                 0.9605
 IR Inten    --     0.5669                14.0429                 1.5475

                    28                     29                     30
                     A                      A                      A
 Frequencies --  1312.7705              1356.9478              1372.7553
 Red. masses --     1.5255                 4.7884                 3.3776
 Frc consts  --     1.5489                 5.1947                 3.7502
 IR Inten    --    11.9097                37.6091               233.6461

                    31                     32                     33
                     A                      A                      A
 Frequencies --  1466.0730              1520.1881              1628.7466
 Red. masses --     3.0389                 2.3179                 5.8529
 Frc consts  --     3.8484                 3.1561                 9.1481
 IR Inten    --    45.4915                 8.9833                38.5384

                    34                     35                     36
                     A                      A                      A
 Frequencies --  1646.0483              1652.0142              1790.4664
 Red. masses --     1.4901                 3.3257                 8.3971
 Frc consts  --     2.3787                 5.3476                15.8603
 IR Inten    --   120.5926                26.5234               237.0957

                    37                     38                     39
                     A                      A                      A
 Frequencies --  3195.0923              3210.3784              3226.7430
 Red. masses --     1.0867                 1.0928                 1.0946
 Frc consts  --     6.5364                 6.6361                 6.7150
 IR Inten    --     4.8899                12.2209                 4.3992

                    40                     41                     42
                     A                      A                      A
 Frequencies --  3242.2858              3578.2933              3696.6931
 Red. masses --     1.0914                 1.0461                 1.1024
 Frc consts  --     6.7599                 7.8921                 8.8762
 IR Inten    --     2.7200                38.3120                28.0339

 - Thermochemistry -
 -------------------
 Temperature   298.150 Kelvin.  Pressure   1.00000 Atm.
 Atom     1 has atomic number  7 and mass  14.00307

 Molecular mass:   155.01379 amu.
 Principal axes and moments of inertia in atomic units:
                           1         2         3
     Eigenvalues --   813.954742588.189893370.29969
           X            0.99996   0.00663  -0.00652
           Y           -0.00664   0.99998  -0.00193
           Z            0.00650   0.00198   0.99998
 This molecule is an asymmetric top.
 Rotational symmetry number  1.
 Warning -- assumption of classical behavior for rotation
           may cause significant error
 Rotational temperatures (Kelvin)      0.10641     0.03347     0.02570
 Rotational constants (GHZ):           2.21725     0.69730     0.53548
 Zero-point vibrational energy     310751.4 (Joules/Mol)
                                   74.27138 (Kcal/Mol)
 Warning -- explicit consideration of  12 degrees of freedom as
           vibrations may cause significant error
 Vibrational temperatures:     85.06   212.42   227.92   287.37   437.22
          (Kelvin)            535.73   574.86   615.09   620.08   687.21
                              766.02   833.90   894.08   990.84   995.62
                             1094.00  1173.69  1197.80  1323.97  1350.57
                             1411.15  1461.93  1586.65  1594.55  1618.73
                             1671.36  1733.73  1888.78  1952.34  1975.09
                             2109.35  2187.21  2343.40  2368.29  2376.88
                             2576.08  4597.02  4619.01  4642.56  4664.92
                             5148.36  5318.71

 Zero-point correction=                           0.118359 (Hartree/Particle)
 Thermal correction to Energy=                    0.127027
 Thermal correction to Enthalpy=                  0.127971
 Thermal correction to Gibbs Free Energy=         0.083934
 Sum of electronic and zero-point Energies=           -860.427802
 Sum of electronic and thermal Energies=              -860.419135
 Sum of electronic and thermal Enthalpies=            -860.418190
 Sum of electronic and thermal Free Energies=         -860.462227

                     E (Thermal)             CV                S
                      KCal/Mol        Cal/Mol-Kelvin    Cal/Mol-Kelvin
 Total                   79.711             32.852             92.684
 Electronic               0.000              0.000              0.000
 Translational            0.889              2.981             41.025
 Rotational               0.889              2.981             30.341
 Vibrational             77.933             26.890             21.318
 Vibration     1          0.596              1.974              4.486
 Vibration     2          0.617              1.905              2.702
 Vibration     3          0.621              1.893              2.569
 Vibration     4          0.638              1.840              2.136
 Vibration     5          0.695              1.666              1.395
 Vibration     6          0.744              1.529              1.070
 Vibration     7          0.766              1.471              0.964
 Vibration     8          0.789              1.410              0.867
 Vibration     9          0.792              1.403              0.855
 Vibration    10          0.834              1.300              0.716
 Vibration    11          0.887              1.178              0.582
 Vibration    12          0.936              1.075              0.486

 Optimization completed.
    -- Stationary point found.
 Normal termination of Gaussian 09 at Fri Aug 24 15:08:49 2018.
