 Gaussian 09, Revision C.01,
 Gaussian 09:  AM64L-G09RevC.01 23-Sep-2011

 ----------------------------------------------------------------------
 #HF/6-31G* Geom=AllCheck Guess=Read Pop=(MK,ReadRadii) Integral=(Grid=
 UltraFine) iop(6/33=2)
 ----------------------------------------------------------------------

 Structure from the checkpoint file:  frag46-conf0.chk
 -----------------------------
 Optimization for frag46-conf0
 -----------------------------
 Charge =  0 Multiplicity = 1

                         Standard orientation:
 ---------------------------------------------------------------------
 Center     Atomic      Atomic             Coordinates (Angstroms)
 Number     Number       Type             X           Y           Z
 ---------------------------------------------------------------------
      1          7           0       -3.357283    0.126559    0.289603
      2          6           0       -2.240048   -0.608696   -0.032431
      3          8           0       -2.307392   -1.795293   -0.323223
      4          6           0       -0.933304    0.138259   -0.037705
      5          6           0       -0.841179    1.534371   -0.110100
      6          6           0        0.409101    2.152686   -0.115399
      7          6           0        1.575750    1.391229   -0.046508
      8          6           0        1.471580    0.000457    0.014279
      9         17           0        2.937304   -0.967440    0.092295
     10          6           0        0.234170   -0.633218    0.011925
     11          1           0       -4.203501   -0.413754    0.415284
     12          1           0       -3.272014    0.960009    0.853463
     13          1           0       -1.737360    2.140932   -0.199870
     14          1           0        0.479607    3.234668   -0.181012
     15          1           0        2.552149    1.863853   -0.047280
     16          1           0        0.150652   -1.713320    0.044586
 ---------------------------------------------------------------------

 SCF Done:  E(RHF) =  -857.384284732     A.U. after   14 cycles

 The electronic state is 1-A.
 Alpha  occ. eigenvalues -- -104.83082 -20.53689 -15.59634 -11.36950 -11.31600
 Alpha  occ. eigenvalues --  -11.26945 -11.26935 -11.26828 -11.26397 -11.26381
 Alpha  occ. eigenvalues --  -10.56384  -8.03322  -8.02988  -8.02985  -1.38657
 Alpha  occ. eigenvalues --   -1.21705  -1.19564  -1.12584  -1.05030  -1.00882
 Alpha  occ. eigenvalues --   -0.89184  -0.83990  -0.79280  -0.74481  -0.70222
 Alpha  occ. eigenvalues --   -0.68024  -0.64555  -0.62901  -0.60957  -0.59602
 Alpha  occ. eigenvalues --   -0.58133  -0.54175  -0.53942  -0.51883  -0.47199
 Alpha  occ. eigenvalues --   -0.45871  -0.43682  -0.41963  -0.35858  -0.34646
 Alpha virt. eigenvalues --    0.08527   0.11684   0.18702   0.21211   0.23166
 Alpha virt. eigenvalues --    0.25760   0.27857   0.30096   0.30996   0.33036
 Alpha virt. eigenvalues --    0.35507   0.41701   0.42814   0.44795   0.45349

 Mulliken atomic charges:
              1
     1  N   -0.921484
     2  C    0.771581
     3  O   -0.606612
     4  C   -0.115885
     5  C   -0.202824
     6  C   -0.203537
     7  C   -0.167215
     8  C   -0.143631
     9  Cl   0.004817
    10  C   -0.159659
    11  H    0.398252
    12  H    0.385643
    13  H    0.222229
    14  H    0.219829
    15  H    0.239307
    16  H    0.279188
 Sum of Mulliken atomic charges =   0.00000

 Dipole moment (field-independent basis, Debye):
    X=             -1.4440    Y=              4.6232    Z=              1.6735  Tot=              5.1244
 Quadrupole moment (field-independent basis, Debye-Ang):
   XX=            -59.0016   YY=            -63.9936   ZZ=            -66.9829
   XY=             -4.7786   XZ=             -6.1044   YZ=             -0.9633

 Normal termination of Gaussian 09 at Fri Aug 24 15:36:05 2018.
