 Gaussian 09, Revision C.01,
 Gaussian 09:  AM64L-G09RevC.01 23-Sep-2011

 ---------------------------------------------------------
 #B3LYP/6-31G* Integral=(Grid=UltraFine) freq Opt pop=none
 ---------------------------------------------------------

 99/9=1/99;
 -----------------------------
 Optimization for frag27-conf0
 -----------------------------
 Charge =  1 Multiplicity = 1

 SCF Done:  E(RB3LYP) =  -1034.18234763     A.U. after   16 cycles
 SCF Done:  E(RB3LYP) =  -1034.18972080     A.U. after   15 cycles
 SCF Done:  E(RB3LYP) =  -1034.19117636     A.U. after   15 cycles
 SCF Done:  E(RB3LYP) =  -1034.19173468     A.U. after   15 cycles
 SCF Done:  E(RB3LYP) =  -1034.19220907     A.U. after   14 cycles
 SCF Done:  E(RB3LYP) =  -1034.19251285     A.U. after   12 cycles
 SCF Done:  E(RB3LYP) =  -1034.19271197     A.U. after   12 cycles
 SCF Done:  E(RB3LYP) =  -1034.19285182     A.U. after   12 cycles
 SCF Done:  E(RB3LYP) =  -1034.19336012     A.U. after   15 cycles
 SCF Done:  E(RB3LYP) =  -1034.18662111     A.U. after   14 cycles
 SCF Done:  E(RB3LYP) =  -1034.23005142     A.U. after    9 cycles
 SCF Done:  E(RB3LYP) =  -1034.23005612     A.U. after    9 cycles
 SCF Done:  E(RB3LYP) =  -1034.23005917     A.U. after    9 cycles
 SCF Done:  E(RB3LYP) =  -1034.23005960     A.U. after    8 cycles
 SCF Done:  E(RB3LYP) =  -1034.23006000     A.U. after    8 cycles
 SCF Done:  E(RB3LYP) =  -1034.23006051     A.U. after    8 cycles
 SCF Done:  E(RB3LYP) =  -1034.23006081     A.U. after    7 cycles
 SCF Done:  E(RB3LYP) =  -1034.23006101     A.U. after    7 cycles
 SCF Done:  E(RB3LYP) =  -1034.23006107     A.U. after    7 cycles
 Optimization completed.
    -- Stationary point found.
 Normal termination of Gaussian 09 at Fri Feb 16 22:03:35 2018.

 --------------------------------------------------------------------
 #N Geom=AllCheck Guess=TCheck SCRF=Check GenChk RB3LYP/6-31G(d) Freq
 --------------------------------------------------------------------

 Structure from the checkpoint file:  frag27-conf0.chk
 -----------------------------
 Optimization for frag27-conf0
 -----------------------------
 Charge =  1 Multiplicity = 1

                         Standard orientation:
 ---------------------------------------------------------------------
 Center     Atomic      Atomic             Coordinates (Angstroms)
 Number     Number       Type             X           Y           Z
 ---------------------------------------------------------------------
      1          6           0       -1.503784    1.906328   -0.312037
      2          6           0       -2.551275    1.015201   -0.517398
      3          6           0       -1.230614   -0.713324    0.550476
      4          6           0       -0.310467    1.511324    0.312889
      5          6           0       -0.172128    0.177604    0.752836
      6          6           0       -2.402920   -0.302445   -0.082727
      7          6           0        2.648660   -1.183911   -0.242347
      8          6           0        3.346669   -2.378958   -0.842680
      9          6           0        1.064709   -0.350740    1.474899
     10          6           0        0.779591    2.543003    0.460220
     11          7           0        1.772028   -1.413518    0.757620
     12          7           0        1.824729    2.370670   -0.631782
     13          8           0        2.896947   -0.037187   -0.660436
     14         17           0       -3.696691   -1.444403   -0.317808
     15          1           0       -1.623477    2.937704   -0.635663
     16          1           0       -3.469891    1.335387   -0.996141
     17          1           0       -1.150350   -1.740416    0.893016
     18          1           0        3.129445   -2.414712   -1.914612
     19          1           0        4.427388   -2.245470   -0.734193
     20          1           0        3.055731   -3.328285   -0.386281
     21          1           0        1.784508    0.442645    1.687484
     22          1           0        0.766066   -0.767728    2.440952
     23          1           0        0.379444    3.554405    0.366292
     24          1           0        1.322498    2.482639    1.405172
     25          1           0        1.627513   -2.368273    1.055672
     26          1           0        1.399031    2.482743   -1.557622
     27          1           0        2.248842    1.380786   -0.592433
     28          1           0        2.583473    3.056356   -0.551080
 ---------------------------------------------------------------------

 SCF Done:  E(RB3LYP) =  -1034.23006107     A.U. after    1 cycles

 Isotropic polarizability for W=    0.000000      128.39 Bohr**3.
 End of Minotr Frequency-dependent properties file   721 does not exist.

                     1                      2                      3
                     A                      A                      A
 Frequencies --    38.0877                68.4292                80.4474
 Red. masses --     5.3467                 3.1737                 1.1859
 Frc consts  --     0.0046                 0.0088                 0.0045
 IR Inten    --     2.7039                 1.0179                 1.8006

                     4                      5                      6
                     A                      A                      A
 Frequencies --    92.5111               103.4813               165.2495
 Red. masses --     4.4104                 3.6667                 4.8926
 Frc consts  --     0.0222                 0.0231                 0.0787
 IR Inten    --    20.1600                 2.5599                 2.0776

                     7                      8                      9
                     A                      A                      A
 Frequencies --   186.2348               205.5673               253.5853
 Red. masses --     6.5527                 4.3571                 3.1909
 Frc consts  --     0.1339                 0.1085                 0.1209
 IR Inten    --     2.9262                 9.2572                52.8717

                    10                     11                     12
                     A                      A                      A
 Frequencies --   265.2203               307.0178               334.9803
 Red. masses --     3.1461                 5.2005                 2.0778
 Frc consts  --     0.1304                 0.2888                 0.1374
 IR Inten    --     4.4375                11.9694                 1.3988

                    13                     14                     15
                     A                      A                      A
 Frequencies --   364.8079               395.9474               426.5058
 Red. masses --     6.5096                 1.3143                 3.1273
 Frc consts  --     0.5104                 0.1214                 0.3352
 IR Inten    --    10.8501                 0.0349                 0.7443

                    16                     17                     18
                     A                      A                      A
 Frequencies --   444.3497               459.5737               500.4005
 Red. masses --     2.3237                 3.6559                 1.2975
 Frc consts  --     0.2703                 0.4549                 0.1914
 IR Inten    --     4.3177                20.8076                81.9534

                    19                     20                     21
                     A                      A                      A
 Frequencies --   527.6421               547.6438               603.6273
 Red. masses --     3.6901                 3.7163                 4.3467
 Frc consts  --     0.6053                 0.6567                 0.9331
 IR Inten    --    23.0062                26.6132                 5.0718

                    22                     23                     24
                     A                      A                      A
 Frequencies --   631.9391               658.1375               676.1620
 Red. masses --     2.7306                 3.4777                 5.3970
 Frc consts  --     0.6425                 0.8875                 1.4538
 IR Inten    --     2.6024                 6.9588                 1.8211

                    25                     26                     27
                     A                      A                      A
 Frequencies --   742.2119               778.9510               843.7286
 Red. masses --     3.5592                 4.3465                 1.4027
 Frc consts  --     1.1552                 1.5538                 0.5883
 IR Inten    --     1.2515                 7.0785                23.0764

                    28                     29                     30
                     A                      A                      A
 Frequencies --   860.2856               890.8644               907.2841
 Red. masses --     2.3930                 1.8141                 1.4709
 Frc consts  --     1.0435                 0.8482                 0.7134
 IR Inten    --     7.0591                 8.4060                 9.1899

                    31                     32                     33
                     A                      A                      A
 Frequencies --   915.6960               924.1623               973.1559
 Red. masses --     2.4723                 4.0208                 1.3206
 Frc consts  --     1.2214                 2.0233                 0.7369
 IR Inten    --     2.9700                43.7289                 0.2790

                    34                     35                     36
                     A                      A                      A
 Frequencies --  1011.5251              1044.2113              1075.3879
 Red. masses --     1.8622                 2.4492                 1.7076
 Frc consts  --     1.1226                 1.5734                 1.1635
 IR Inten    --     1.3933                16.5691                10.6739

                    37                     38                     39
                     A                      A                      A
 Frequencies --  1089.2945              1099.5702              1119.2524
 Red. masses --     1.9490                 1.8269                 2.1513
 Frc consts  --     1.3626                 1.3014                 1.5878
 IR Inten    --     9.7952                 4.5312                 2.6675

                    40                     41                     42
                     A                      A                      A
 Frequencies --  1136.6813              1174.1038              1210.4576
 Red. masses --     1.7052                 1.8540                 1.6977
 Frc consts  --     1.2981                 1.5059                 1.4656
 IR Inten    --    64.0612                 9.6541                 8.0100

                    43                     44                     45
                     A                      A                      A
 Frequencies --  1245.9754              1289.7116              1314.8249
 Red. masses --     2.6422                 1.4099                 1.5409
 Frc consts  --     2.4168                 1.3817                 1.5695
 IR Inten    --    42.0915                 1.5797                32.8754

                    46                     47                     48
                     A                      A                      A
 Frequencies --  1327.0044              1340.5107              1366.6892
 Red. masses --     1.9035                 1.4617                 1.8283
 Frc consts  --     1.9749                 1.5476                 2.0120
 IR Inten    --    59.2279                 6.8754                 4.3417

                    49                     50                     51
                     A                      A                      A
 Frequencies --  1402.1603              1413.9451              1434.7784
 Red. masses --     1.3749                 1.3366                 1.2287
 Frc consts  --     1.5926                 1.5744                 1.4903
 IR Inten    --     8.3747                50.6441                23.8013

                    52                     53                     54
                     A                      A                      A
 Frequencies --  1448.8508              1494.2635              1504.5896
 Red. masses --     2.9185                 1.0442                 1.1114
 Frc consts  --     3.6096                 1.3737                 1.4824
 IR Inten    --     4.7705                 9.4331                21.0693

                    55                     56                     57
                     A                      A                      A
 Frequencies --  1513.0070              1535.1625              1537.6063
 Red. masses --     1.0815                 1.9888                 1.2336
 Frc consts  --     1.4586                 2.7616                 1.7184
 IR Inten    --    25.0302                28.6892                 3.8575

                    58                     59                     60
                     A                      A                      A
 Frequencies --  1584.1989              1600.3503              1618.9568
 Red. masses --     2.1628                 1.1685                 6.5454
 Frc consts  --     3.1980                 1.7633                10.1078
 IR Inten    --   199.7687               181.1711                 9.9532

                    61                     62                     63
                     A                      A                      A
 Frequencies --  1649.7498              1685.1306              1707.1833
 Red. masses --     5.7055                 1.2933                 1.3725
 Frc consts  --     9.1491                 2.1638                 2.3568
 IR Inten    --    62.6447                52.1902               181.6097

                    64                     65                     66
                     A                      A                      A
 Frequencies --  1722.5685              2591.0958              3076.0098
 Red. masses --     1.7088                 1.1046                 1.0355
 Frc consts  --     2.9875                 4.3694                 5.7727
 IR Inten    --   157.0865              1575.9514                 0.8864

                    67                     68                     69
                     A                      A                      A
 Frequencies --  3094.6541              3116.9554              3139.9136
 Red. masses --     1.0611                 1.0616                 1.1033
 Frc consts  --     5.9876                 6.0769                 6.4089
 IR Inten    --    10.0492                 5.5488                10.0847

                    70                     71                     72
                     A                      A                      A
 Frequencies --  3147.5608              3160.9177              3167.7714
 Red. masses --     1.1011                 1.1055                 1.1090
 Frc consts  --     6.4271                 6.5079                 6.5570
 IR Inten    --     0.1824                 6.7717                 3.1268

                    73                     74                     75
                     A                      A                      A
 Frequencies --  3188.1805              3211.6109              3237.0602
 Red. masses --     1.0905                 1.0914                 1.0940
 Frc consts  --     6.5305                 6.6327                 6.7543
 IR Inten    --     6.5974                 0.7405                 0.1706

                    76                     77                     78
                     A                      A                      A
 Frequencies --  3436.0112              3507.2173              3629.5608
 Red. masses --     1.0531                 1.0938                 1.0789
 Frc consts  --     7.3250                 7.9270                 8.3743
 IR Inten    --    56.4390                50.8653                46.4490

 - Thermochemistry -
 -------------------
 Temperature   298.150 Kelvin.  Pressure   1.00000 Atm.
 Atom     1 has atomic number  6 and mass  12.00000

 Molecular mass:   213.07947 amu.
 Principal axes and moments of inertia in atomic units:
                           1         2         3
     Eigenvalues --  2185.218164687.326306159.24733
           X            0.99940  -0.03441  -0.00377
           Y            0.03438   0.99939  -0.00655
           Z            0.00399   0.00642   0.99997
 This molecule is an asymmetric top.
 Rotational symmetry number  1.
 Warning -- assumption of classical behavior for rotation
           may cause significant error
 Rotational temperatures (Kelvin)      0.03964     0.01848     0.01406
 Rotational constants (GHZ):           0.82589     0.38503     0.29301
 Zero-point vibrational energy     619522.7 (Joules/Mol)
                                  148.06948 (Kcal/Mol)
 Warning -- explicit consideration of  21 degrees of freedom as
           vibrations may cause significant error
 Vibrational temperatures:     54.80    98.45   115.75   133.10   148.89
          (Kelvin)            237.76   267.95   295.77   364.85   381.59
                              441.73   481.96   524.88   569.68   613.65
                              639.32   661.22   719.96   759.16   787.94
                              868.48   909.22   946.91   972.85  1067.88
                             1120.74  1213.94  1237.76  1281.75  1305.38
                             1317.48  1329.66  1400.15  1455.36  1502.39
                             1547.24  1567.25  1582.03  1610.35  1635.43
                             1689.27  1741.58  1792.68  1855.61  1891.74
                             1909.26  1928.69  1966.36  2017.39  2034.35
                             2064.32  2084.57  2149.91  2164.77  2176.88
                             2208.75  2212.27  2279.31  2302.54  2329.31
                             2373.62  2424.52  2456.25  2478.39  3728.00
                             4425.69  4452.51  4484.60  4517.63  4528.63
                             4547.85  4557.71  4587.07  4620.79  4657.40
                             4943.65  5046.10  5222.12

 Zero-point correction=                           0.235964 (Hartree/Particle)
 Thermal correction to Energy=                    0.249750
 Thermal correction to Enthalpy=                  0.250694
 Thermal correction to Gibbs Free Energy=         0.194672
 Sum of electronic and zero-point Energies=          -1033.994097
 Sum of electronic and thermal Energies=             -1033.980311
 Sum of electronic and thermal Enthalpies=           -1033.979367
 Sum of electronic and thermal Free Energies=        -1034.035389

                     E (Thermal)             CV                S
                      KCal/Mol        Cal/Mol-Kelvin    Cal/Mol-Kelvin
 Total                  156.720             51.961            117.908
 Electronic               0.000              0.000              0.000
 Translational            0.889              2.981             41.973
 Rotational               0.889              2.981             32.512
 Vibrational            154.943             46.000             43.424
 Vibration     1          0.594              1.982              5.356
 Vibration     2          0.598              1.969              4.198
 Vibration     3          0.600              1.962              3.880
 Vibration     4          0.602              1.955              3.606
 Vibration     5          0.605              1.946              3.388
 Vibration     6          0.624              1.885              2.489
 Vibration     7          0.632              1.859              2.265
 Vibration     8          0.640              1.832              2.083
 Vibration     9          0.665              1.757              1.706
 Vibration    10          0.671              1.737              1.627
 Vibration    11          0.697              1.660              1.378
 Vibration    12          0.716              1.606              1.236
 Vibration    13          0.738              1.545              1.102
 Vibration    14          0.763              1.479              0.978
 Vibration    15          0.788              1.413              0.870
 Vibration    16          0.804              1.373              0.813
 Vibration    17          0.817              1.340              0.767
 Vibration    18          0.856              1.249              0.657
 Vibration    19          0.883              1.189              0.592
 Vibration    20          0.903              1.145              0.549
 Vibration    21          0.962              1.024              0.443

 Optimization completed.
    -- Stationary point found.
 Normal termination of Gaussian 09 at Fri Feb 16 22:40:50 2018.
