 Gaussian 09, Revision C.01,
 Gaussian 09:  AM64L-G09RevC.01 23-Sep-2011

 ----------------------------------------------------------------------
 #HF/6-31G* Geom=AllCheck Guess=Read Pop=(MK,ReadRadii) Integral=(Grid=
 UltraFine) iop(6/33=2)
 ----------------------------------------------------------------------

 Structure from the checkpoint file:  frag27-conf0.chk
 -----------------------------
 Optimization for frag27-conf0
 -----------------------------
 Charge =  1 Multiplicity = 1

                         Standard orientation:
 ---------------------------------------------------------------------
 Center     Atomic      Atomic             Coordinates (Angstroms)
 Number     Number       Type             X           Y           Z
 ---------------------------------------------------------------------
      1          6           0       -1.503784    1.906328   -0.312037
      2          6           0       -2.551275    1.015201   -0.517398
      3          6           0       -1.230614   -0.713324    0.550476
      4          6           0       -0.310467    1.511324    0.312889
      5          6           0       -0.172128    0.177604    0.752836
      6          6           0       -2.402920   -0.302445   -0.082727
      7          6           0        2.648660   -1.183911   -0.242347
      8          6           0        3.346669   -2.378958   -0.842680
      9          6           0        1.064709   -0.350740    1.474899
     10          6           0        0.779591    2.543003    0.460220
     11          7           0        1.772028   -1.413518    0.757620
     12          7           0        1.824729    2.370670   -0.631782
     13          8           0        2.896947   -0.037187   -0.660436
     14         17           0       -3.696691   -1.444403   -0.317808
     15          1           0       -1.623477    2.937704   -0.635663
     16          1           0       -3.469891    1.335387   -0.996141
     17          1           0       -1.150350   -1.740416    0.893016
     18          1           0        3.129445   -2.414712   -1.914612
     19          1           0        4.427388   -2.245470   -0.734193
     20          1           0        3.055731   -3.328285   -0.386281
     21          1           0        1.784508    0.442645    1.687484
     22          1           0        0.766066   -0.767728    2.440952
     23          1           0        0.379444    3.554405    0.366292
     24          1           0        1.322498    2.482639    1.405172
     25          1           0        1.627513   -2.368273    1.055672
     26          1           0        1.399031    2.482743   -1.557622
     27          1           0        2.248842    1.380786   -0.592433
     28          1           0        2.583473    3.056356   -0.551080
 ---------------------------------------------------------------------

 SCF Done:  E(RHF) =  -1029.90117824     A.U. after   14 cycles

 The electronic state is 1-A.
 Alpha  occ. eigenvalues -- -104.93301 -20.68293 -15.83006 -15.74348 -11.50947
 Alpha  occ. eigenvalues --  -11.45595 -11.43081 -11.42465 -11.39809 -11.39669
 Alpha  occ. eigenvalues --  -11.38489 -11.37774 -11.37446 -11.36048 -10.66608
 Alpha  occ. eigenvalues --   -8.13546  -8.13194  -8.13193  -1.53040  -1.44655
 Alpha  occ. eigenvalues --   -1.38333  -1.31382  -1.25051  -1.18896  -1.16410
 Alpha  occ. eigenvalues --   -1.13917  -1.08364  -1.05926  -0.97417  -0.95041
 Alpha  occ. eigenvalues --   -0.93080  -0.91204  -0.90458  -0.83217  -0.82741
 Alpha  occ. eigenvalues --   -0.80705  -0.79947  -0.78038  -0.77137  -0.74727
 Alpha  occ. eigenvalues --   -0.72966  -0.72049  -0.71159  -0.70297  -0.69527
 Alpha  occ. eigenvalues --   -0.68205  -0.65756  -0.65432  -0.63820  -0.63121
 Alpha  occ. eigenvalues --   -0.58522  -0.57558  -0.55970  -0.54696  -0.47228
 Alpha  occ. eigenvalues --   -0.45891
 Alpha virt. eigenvalues --   -0.02129  -0.00744   0.03922   0.04919   0.07828
 Alpha virt. eigenvalues --    0.09070   0.09825   0.10579   0.12925   0.14545
 Alpha virt. eigenvalues --    0.16192   0.17110   0.17259   0.18570   0.19613

 Mulliken atomic charges:
              1
     1  C   -0.207353
     2  C   -0.175336
     3  C   -0.189790
     4  C   -0.027207
     5  C    0.049563
     6  C   -0.127998
     7  C    0.811405
     8  C   -0.581751
     9  C   -0.183263
    10  C   -0.244493
    11  N   -0.781467
    12  N   -0.911501
    13  O   -0.732083
    14  Cl   0.065368
    15  H    0.235030
    16  H    0.268284
    17  H    0.243433
    18  H    0.235390
    19  H    0.239341
    20  H    0.198017
    21  H    0.202766
    22  H    0.243183
    23  H    0.254552
    24  H    0.250586
    25  H    0.420507
    26  H    0.442897
    27  H    0.557231
    28  H    0.444692
 Sum of Mulliken atomic charges =   1.00000

 Dipole moment (field-independent basis, Debye):
    X=              6.5657    Y=              4.8800    Z=              0.2020  Tot=              8.1831
 Quadrupole moment (field-independent basis, Debye-Ang):
   XX=            -70.4212   YY=            -48.1447   ZZ=            -82.0190
   XY=             -0.3175   XZ=              1.5255   YZ=             -7.5029

 Normal termination of Gaussian 09 at Sat Feb 17 21:01:16 2018.
