 Gaussian 09, Revision C.01,
 Gaussian 09:  AM64L-G09RevC.01 23-Sep-2011

 ----------------------------------------------------------------------
 #HF/6-31G* Geom=AllCheck Guess=Read Pop=(MK,ReadRadii) Integral=(Grid=
 UltraFine) iop(6/33=2)
 ----------------------------------------------------------------------

 Structure from the checkpoint file:  frag31-conf1.chk
 -----------------------------
 Optimization for frag31-conf1
 -----------------------------
 Charge =  1 Multiplicity = 1

                         Standard orientation:
 ---------------------------------------------------------------------
 Center     Atomic      Atomic             Coordinates (Angstroms)
 Number     Number       Type             X           Y           Z
 ---------------------------------------------------------------------
      1          6           0       -2.275245   -1.656445    0.037126
      2          6           0       -2.961464   -0.677976   -0.686344
      3          6           0       -1.094656   -1.314654    0.687344
      4          6           0       -2.446146    0.600895   -0.726530
      5          6           0       -0.599951   -0.013606    0.634919
      6          6           0        2.338247   -0.389701   -0.250073
      7          6           0        3.658533   -0.114069   -0.933596
      8          6           0       -0.820724    2.325452   -0.142754
      9          6           0        0.676594    0.370235    1.364320
     10          7           0       -1.296071    0.922019   -0.075120
     11          7           0        1.782481    0.667756    0.461111
     12          8           0        1.755547   -1.462312   -0.295792
     13          1           0       -2.649848   -2.673966    0.082817
     14          1           0       -3.880632   -0.896838   -1.217575
     15          1           0       -0.516461   -2.057777    1.222087
     16          1           0       -2.926451    1.405283   -1.269264
     17          1           0        4.468582   -0.536160   -0.327420
     18          1           0        3.670284   -0.625341   -1.898593
     19          1           0        3.852332    0.952223   -1.081074
     20          1           0       -0.907822    2.789488    0.842746
     21          1           0        0.217169    2.334040   -0.474487
     22          1           0       -1.440805    2.871592   -0.851685
     23          1           0        0.501777    1.249347    1.992151
     24          1           0        0.927165   -0.465407    2.026081
     25          1           0        2.384338    1.442801    0.712143
 ---------------------------------------------------------------------

 SCF Done:  E(RHF) =  -531.958115902     A.U. after   13 cycles

 The electronic state is 1-A.
 Alpha  occ. eigenvalues --  -20.65869 -15.84332 -15.73226 -11.48456 -11.48436
 Alpha  occ. eigenvalues --  -11.47676 -11.43943 -11.43836 -11.43541 -11.41538
 Alpha  occ. eigenvalues --  -11.41038 -11.34892  -1.51356  -1.50260  -1.36789
 Alpha  occ. eigenvalues --   -1.28568  -1.24189  -1.14880  -1.14065  -1.08900
 Alpha  occ. eigenvalues --   -1.05075  -1.00411  -0.92575  -0.88453  -0.86097
 Alpha  occ. eigenvalues --   -0.83955  -0.82974  -0.80406  -0.79190  -0.78430
 Alpha  occ. eigenvalues --   -0.77635  -0.73941  -0.73453  -0.71164  -0.70940
 Alpha  occ. eigenvalues --   -0.69882  -0.69400  -0.68003  -0.66775  -0.62842
 Alpha  occ. eigenvalues --   -0.56556  -0.55749  -0.53850  -0.51104
 Alpha virt. eigenvalues --   -0.08531  -0.03564   0.05961   0.07105   0.08045
 Alpha virt. eigenvalues --    0.10956   0.11918   0.13452   0.14703   0.15920
 Alpha virt. eigenvalues --    0.16259   0.17300   0.17470   0.18090   0.19662

 Mulliken atomic charges:
              1
     1  C   -0.093287
     2  C   -0.272047
     3  C   -0.241571
     4  C    0.152170
     5  C    0.449541
     6  C    0.747006
     7  C   -0.592486
     8  C   -0.334648
     9  C   -0.187550
    10  N   -0.654236
    11  N   -0.804059
    12  O   -0.599608
    13  H    0.291078
    14  H    0.285933
    15  H    0.291459
    16  H    0.289818
    17  H    0.232641
    18  H    0.239400
    19  H    0.190649
    20  H    0.233408
    21  H    0.254901
    22  H    0.234482
    23  H    0.229840
    24  H    0.248726
    25  H    0.408440
 Sum of Mulliken atomic charges =   1.00000

 Dipole moment (field-independent basis, Debye):
    X=             -3.4435    Y=              4.2419    Z=              0.8696  Tot=              5.5324
 Quadrupole moment (field-independent basis, Debye-Ang):
   XX=            -35.1089   YY=            -55.1027   ZZ=            -63.3764
   XY=              7.4172   XZ=              6.2167   YZ=             -2.2006

 Normal termination of Gaussian 09 at Sat Feb 17 21:02:29 2018.
