 Gaussian 09, Revision C.01,
 Gaussian 09:  AM64L-G09RevC.01 23-Sep-2011

 ---------------------------------------------------------
 #B3LYP/6-31G* Integral=(Grid=UltraFine) freq Opt pop=none
 ---------------------------------------------------------

 99/9=1/99;
 -----------------------------
 Optimization for frag31-conf1
 -----------------------------
 Charge =  1 Multiplicity = 1

 SCF Done:  E(RB3LYP) =  -535.300106022     A.U. after   16 cycles
 SCF Done:  E(RB3LYP) =  -535.304189171     A.U. after   13 cycles
 SCF Done:  E(RB3LYP) =  -535.304774029     A.U. after   12 cycles
 SCF Done:  E(RB3LYP) =  -535.305070239     A.U. after   12 cycles
 SCF Done:  E(RB3LYP) =  -535.305616550     A.U. after   13 cycles
 SCF Done:  E(RB3LYP) =  -535.306365561     A.U. after   14 cycles
 SCF Done:  E(RB3LYP) =  -535.306754996     A.U. after   12 cycles
 SCF Done:  E(RB3LYP) =  -535.306833124     A.U. after   12 cycles
 SCF Done:  E(RB3LYP) =  -535.306845759     A.U. after   11 cycles
 SCF Done:  E(RB3LYP) =  -535.306854952     A.U. after   11 cycles
 SCF Done:  E(RB3LYP) =  -535.307080509     A.U. after   13 cycles
 SCF Done:  E(RB3LYP) =  -535.307059793     A.U. after   11 cycles
 SCF Done:  E(RB3LYP) =  -535.307078460     A.U. after   10 cycles
 SCF Done:  E(RB3LYP) =  -535.307085867     A.U. after   10 cycles
 SCF Done:  E(RB3LYP) =  -535.307086296     A.U. after   10 cycles
 SCF Done:  E(RB3LYP) =  -535.307086591     A.U. after    9 cycles
 SCF Done:  E(RB3LYP) =  -535.307086809     A.U. after    8 cycles
 SCF Done:  E(RB3LYP) =  -535.307086818     A.U. after    7 cycles
 SCF Done:  E(RB3LYP) =  -535.307086821     A.U. after    6 cycles
 Optimization completed.
    -- Stationary point found.
 Normal termination of Gaussian 09 at Fri Feb 16 21:05:29 2018.

 --------------------------------------------------------------------
 #N Geom=AllCheck Guess=TCheck SCRF=Check GenChk RB3LYP/6-31G(d) Freq
 --------------------------------------------------------------------

 Structure from the checkpoint file:  frag31-conf1.chk
 -----------------------------
 Optimization for frag31-conf1
 -----------------------------
 Charge =  1 Multiplicity = 1

                         Standard orientation:
 ---------------------------------------------------------------------
 Center     Atomic      Atomic             Coordinates (Angstroms)
 Number     Number       Type             X           Y           Z
 ---------------------------------------------------------------------
      1          6           0       -2.275245   -1.656445    0.037126
      2          6           0       -2.961464   -0.677976   -0.686344
      3          6           0       -1.094656   -1.314654    0.687344
      4          6           0       -2.446146    0.600895   -0.726530
      5          6           0       -0.599951   -0.013606    0.634919
      6          6           0        2.338247   -0.389701   -0.250073
      7          6           0        3.658533   -0.114069   -0.933596
      8          6           0       -0.820724    2.325452   -0.142754
      9          6           0        0.676594    0.370235    1.364320
     10          7           0       -1.296071    0.922019   -0.075120
     11          7           0        1.782481    0.667756    0.461111
     12          8           0        1.755547   -1.462312   -0.295792
     13          1           0       -2.649848   -2.673966    0.082817
     14          1           0       -3.880632   -0.896838   -1.217575
     15          1           0       -0.516461   -2.057777    1.222087
     16          1           0       -2.926451    1.405283   -1.269264
     17          1           0        4.468582   -0.536160   -0.327420
     18          1           0        3.670284   -0.625341   -1.898593
     19          1           0        3.852332    0.952223   -1.081074
     20          1           0       -0.907822    2.789488    0.842746
     21          1           0        0.217169    2.334040   -0.474487
     22          1           0       -1.440805    2.871592   -0.851685
     23          1           0        0.501777    1.249347    1.992151
     24          1           0        0.927165   -0.465407    2.026081
     25          1           0        2.384338    1.442801    0.712143
 ---------------------------------------------------------------------

 SCF Done:  E(RB3LYP) =  -535.307086821     A.U. after    1 cycles

 Isotropic polarizability for W=    0.000000      104.48 Bohr**3.
 End of Minotr Frequency-dependent properties file   721 does not exist.

                     1                      2                      3
                     A                      A                      A
 Frequencies --    37.9228                57.6801                71.8651
 Red. masses --     4.3618                 1.2423                 2.8462
 Frc consts  --     0.0037                 0.0024                 0.0087
 IR Inten    --     6.9170                 2.5788                 2.2739

                     4                      5                      6
                     A                      A                      A
 Frequencies --    91.2889               149.8343               155.1050
 Red. masses --     3.5579                 1.1642                 3.2654
 Frc consts  --     0.0175                 0.0154                 0.0463
 IR Inten    --     6.7519                 0.0788                 3.0897

                     7                      8                      9
                     A                      A                      A
 Frequencies --   220.7870               232.9802               297.0677
 Red. masses --     4.4245                 3.2456                 3.7254
 Frc consts  --     0.1271                 0.1038                 0.1937
 IR Inten    --     7.9283                10.9606                 3.1966

                    10                     11                     12
                     A                      A                      A
 Frequencies --   361.8323               426.5650               435.7358
 Red. masses --     2.1943                 3.0715                 2.7415
 Frc consts  --     0.1693                 0.3293                 0.3067
 IR Inten    --     3.1286                 3.5414                 1.1971

                    13                     14                     15
                     A                      A                      A
 Frequencies --   451.9301               494.9051               519.1132
 Red. masses --     3.3585                 2.6955                 1.4145
 Frc consts  --     0.4041                 0.3890                 0.2246
 IR Inten    --    13.5958                10.9615                89.7392

                    16                     17                     18
                     A                      A                      A
 Frequencies --   555.4760               602.3370               636.5479
 Red. masses --     4.3418                 4.1410                 2.7949
 Frc consts  --     0.7893                 0.8852                 0.6672
 IR Inten    --     6.4753                 1.4859                 4.7977

                    19                     20                     21
                     A                      A                      A
 Frequencies --   669.2070               746.7186               773.0467
 Red. masses --     3.8272                 4.6174                 2.4039
 Frc consts  --     1.0098                 1.5169                 0.8464
 IR Inten    --    10.4618                 1.8975                12.3133

                    22                     23                     24
                     A                      A                      A
 Frequencies --   787.9156               834.0285               883.2960
 Red. masses --     1.6883                 3.2151                 2.7747
 Frc consts  --     0.6175                 1.3177                 1.2755
 IR Inten    --    36.2921                 9.2715                 5.8603

                    25                     26                     27
                     A                      A                      A
 Frequencies --   903.7624               980.1267               994.6220
 Red. masses --     1.4181                 1.3528                 1.6586
 Frc consts  --     0.6824                 0.7657                 0.9667
 IR Inten    --     2.1074                 0.3172                 9.7843

                    28                     29                     30
                     A                      A                      A
 Frequencies --  1034.0998              1044.6867              1069.2915
 Red. masses --     1.3598                 2.5978                 1.7246
 Frc consts  --     0.8567                 1.6704                 1.1618
 IR Inten    --     0.1749                 3.7185                10.9879

                    31                     32                     33
                     A                      A                      A
 Frequencies --  1075.6209              1096.2740              1111.4089
 Red. masses --     2.2326                 2.2306                 2.3534
 Frc consts  --     1.5219                 1.5795                 1.7128
 IR Inten    --     1.6690                 4.8890                 2.2858

                    34                     35                     36
                     A                      A                      A
 Frequencies --  1159.1346              1172.9191              1209.3398
 Red. masses --     1.3449                 1.8659                 1.2274
 Frc consts  --     1.0646                 1.5125                 1.0576
 IR Inten    --     1.3725                 3.3388                 4.9115

                    37                     38                     39
                     A                      A                      A
 Frequencies --  1213.5986              1244.9625              1267.4924
 Red. masses --     2.3441                 2.1787                 2.1622
 Frc consts  --     2.0341                 1.9896                 2.0466
 IR Inten    --    20.1709                40.2868                96.5387

                    40                     41                     42
                     A                      A                      A
 Frequencies --  1290.7699              1351.6186              1361.1369
 Red. masses --     1.5226                 3.4639                 1.3431
 Frc consts  --     1.4946                 3.7284                 1.4661
 IR Inten    --     7.1149                35.3642                11.7559

                    43                     44                     45
                     A                      A                      A
 Frequencies --  1406.3837              1427.6360              1465.8976
 Red. masses --     1.2837                 1.2369                 1.2627
 Frc consts  --     1.4959                 1.4853                 1.5986
 IR Inten    --    27.3713                19.1779                 3.7249

                    46                     47                     48
                     A                      A                      A
 Frequencies --  1491.6025              1498.2041              1506.8614
 Red. masses --     1.1232                 1.2046                 1.2765
 Frc consts  --     1.4724                 1.5931                 1.7077
 IR Inten    --    36.7127                 0.7238                 7.7851

                    49                     50                     51
                     A                      A                      A
 Frequencies --  1510.9984              1515.0989              1523.1383
 Red. masses --     1.0706                 1.2266                 1.4024
 Frc consts  --     1.4401                 1.6590                 1.9169
 IR Inten    --    15.6649                36.6687                33.8796

                    52                     53                     54
                     A                      A                      A
 Frequencies --  1535.5974              1560.4235              1625.8453
 Red. masses --     1.4660                 1.6772                 5.4465
 Frc consts  --     2.0368                 2.4061                 8.4825
 IR Inten    --    81.9538                46.3383                21.2860

                    55                     56                     57
                     A                      A                      A
 Frequencies --  1682.8265              1792.2294              3068.9207
 Red. masses --     5.3607                 9.5314                 1.0379
 Frc consts  --     8.9444                18.0382                 5.7594
 IR Inten    --    40.3295               151.1793                 1.5577

                    58                     59                     60
                     A                      A                      A
 Frequencies --  3077.4796              3098.1582              3124.0404
 Red. masses --     1.0598                 1.0348                 1.1056
 Frc consts  --     5.9136                 5.8520                 6.3573
 IR Inten    --     9.7516                 3.0877                 2.8041

                    61                     62                     63
                     A                      A                      A
 Frequencies --  3137.1359              3169.1771              3183.7812
 Red. masses --     1.1004                 1.1030                 1.1039
 Frc consts  --     6.3808                 6.5269                 6.5928
 IR Inten    --     5.7118                 2.8297                 2.5384

                    64                     65                     66
                     A                      A                      A
 Frequencies --  3209.5049              3231.4998              3245.6897
 Red. masses --     1.1076                 1.0911                 1.0933
 Frc consts  --     6.7223                 6.7130                 6.7859
 IR Inten    --     0.2604                 0.0082                 1.8330

                    67                     68                     69
                     A                      A                      A
 Frequencies --  3258.1598              3261.1586              3595.9533
 Red. masses --     1.0945                 1.0975                 1.0784
 Frc consts  --     6.8458                 6.8771                 8.2156
 IR Inten    --     4.4219                 1.6879                35.5989

 - Thermochemistry -
 -------------------
 Temperature   298.150 Kelvin.  Pressure   1.00000 Atm.
 Atom     1 has atomic number  6 and mass  12.00000

 Molecular mass:   165.10279 amu.
 Principal axes and moments of inertia in atomic units:
                           1         2         3
     Eigenvalues --  1093.394572803.887833321.58173
           X            0.99996   0.00845  -0.00021
           Y           -0.00845   0.99989  -0.01185
           Z            0.00011   0.01185   0.99993
 This molecule is an asymmetric top.
 Rotational symmetry number  1.
 Warning -- assumption of classical behavior for rotation
           may cause significant error
 Rotational temperatures (Kelvin)      0.07922     0.03089     0.02608
 Rotational constants (GHZ):           1.65059     0.64366     0.54334
 Zero-point vibrational energy     563904.4 (Joules/Mol)
                                  134.77638 (Kcal/Mol)
 Warning -- explicit consideration of  17 degrees of freedom as
           vibrations may cause significant error
 Vibrational temperatures:     54.56    82.99   103.40   131.34   215.58
          (Kelvin)            223.16   317.66   335.21   427.41   520.60
                              613.73   626.93   650.23   712.06   746.89
                              799.21   866.63   915.85   962.84  1074.36
                             1112.24  1133.63  1199.98  1270.86  1300.31
                             1410.18  1431.04  1487.84  1503.07  1538.47
                             1547.58  1577.29  1599.07  1667.73  1687.57
                             1739.97  1746.10  1791.22  1823.64  1857.13
                             1944.68  1958.37  2023.47  2054.05  2109.10
                             2146.08  2155.58  2168.03  2173.99  2179.89
                             2191.45  2209.38  2245.10  2339.23  2421.21
                             2578.62  4415.49  4427.80  4457.55  4494.79
                             4513.63  4559.73  4580.75  4617.76  4649.40
                             4669.82  4687.76  4692.07  5173.77

 Zero-point correction=                           0.214780 (Hartree/Particle)
 Thermal correction to Energy=                    0.226674
 Thermal correction to Enthalpy=                  0.227618
 Thermal correction to Gibbs Free Energy=         0.175860
 Sum of electronic and zero-point Energies=           -535.092307
 Sum of electronic and thermal Energies=              -535.080413
 Sum of electronic and thermal Enthalpies=            -535.079469
 Sum of electronic and thermal Free Energies=         -535.131227

                     E (Thermal)             CV                S
                      KCal/Mol        Cal/Mol-Kelvin    Cal/Mol-Kelvin
 Total                  142.240             43.995            108.934
 Electronic               0.000              0.000              0.000
 Translational            0.889              2.981             41.213
 Rotational               0.889              2.981             30.700
 Vibrational            140.463             38.034             37.022
 Vibration     1          0.594              1.982              5.365
 Vibration     2          0.596              1.974              4.535
 Vibration     3          0.598              1.967              4.102
 Vibration     4          0.602              1.955              3.632
 Vibration     5          0.618              1.903              2.674
 Vibration     6          0.620              1.897              2.609
 Vibration     7          0.648              1.809              1.953
 Vibration     8          0.654              1.790              1.856
 Vibration     9          0.691              1.679              1.433
 Vibration    10          0.736              1.551              1.114
 Vibration    11          0.788              1.412              0.870
 Vibration    12          0.796              1.392              0.840
 Vibration    13          0.811              1.357              0.790
 Vibration    14          0.851              1.261              0.671
 Vibration    15          0.874              1.208              0.612
 Vibration    16          0.911              1.128              0.533
 Vibration    17          0.961              1.027              0.446

 Optimization completed.
    -- Stationary point found.
 Normal termination of Gaussian 09 at Fri Feb 16 21:27:26 2018.
