 Gaussian 09, Revision C.01,
 Gaussian 09:  AM64L-G09RevC.01 23-Sep-2011

 --------------------------------------------------------------
 #B3LYP/6-31G* Integral=(Grid=UltraFine) freq Opt pop=none SCRF
 --------------------------------------------------------------

 99/9=1/99;
 -----------------------------
 Optimization for frag37-conf0
 -----------------------------
 Charge =  0 Multiplicity = 1

 SCF Done:  E(RB3LYP) =  -805.722549912     A.U. after   13 cycles
 SCF Done:  E(RB3LYP) =  -805.730628506     A.U. after   12 cycles
 SCF Done:  E(RB3LYP) =  -805.720746421     A.U. after   12 cycles
 SCF Done:  E(RB3LYP) =  -805.731543498     A.U. after   11 cycles
 SCF Done:  E(RB3LYP) =  -805.732004555     A.U. after   12 cycles
 SCF Done:  E(RB3LYP) =  -805.733960306     A.U. after   11 cycles
 SCF Done:  E(RB3LYP) =  -805.733513627     A.U. after   11 cycles
 SCF Done:  E(RB3LYP) =  -805.734155631     A.U. after   11 cycles
 SCF Done:  E(RB3LYP) =  -805.734099289     A.U. after   11 cycles
 SCF Done:  E(RB3LYP) =  -805.734232577     A.U. after   11 cycles
 SCF Done:  E(RB3LYP) =  -805.734476875     A.U. after    9 cycles
 SCF Done:  E(RB3LYP) =  -805.734479872     A.U. after    9 cycles
 SCF Done:  E(RB3LYP) =  -805.734489516     A.U. after    9 cycles
 SCF Done:  E(RB3LYP) =  -805.734491347     A.U. after    8 cycles
 SCF Done:  E(RB3LYP) =  -805.734493190     A.U. after    8 cycles
 SCF Done:  E(RB3LYP) =  -805.734494502     A.U. after    7 cycles
 SCF Done:  E(RB3LYP) =  -805.734495347     A.U. after    8 cycles
 SCF Done:  E(RB3LYP) =  -805.734496262     A.U. after    8 cycles
 SCF Done:  E(RB3LYP) =  -805.734495895     A.U. after    7 cycles
 Optimization completed.
    -- Stationary point found.
 Normal termination of Gaussian 09 at Sat Feb 17 19:49:32 2018.

 --------------------------------------------------------------------
 #N Geom=AllCheck Guess=TCheck SCRF=Check GenChk RB3LYP/6-31G(d) Freq
 --------------------------------------------------------------------

 Structure from the checkpoint file:  frag37-conf0.chk
 -----------------------------
 Optimization for frag37-conf0
 -----------------------------
 Charge =  0 Multiplicity = 1

                         Standard orientation:
 ---------------------------------------------------------------------
 Center     Atomic      Atomic             Coordinates (Angstroms)
 Number     Number       Type             X           Y           Z
 ---------------------------------------------------------------------
      1          6           0       -0.211686    1.524803   -0.517715
      2          6           0        3.826390   -0.749604    0.232684
      3          6           0       -3.363730   -2.238571   -0.146950
      4          6           0       -2.914856   -1.765193    1.242326
      5          6           0       -2.155664   -2.544745   -1.042794
      6          6           0       -1.958268   -0.565326    1.150770
      7          6           0       -1.202702   -1.341681   -1.141489
      8          6           0       -0.740831   -0.885890    0.258550
      9          6           0       -1.342090    3.664992   -0.642745
     10          6           0       -0.957232    2.701527    1.582422
     11          6           0        2.356571   -1.262151    0.058580
     12          6           0        0.282653    0.282402    0.253603
     13          7           0       -0.822874    2.539497    0.136244
     14          7           0        1.557661   -0.099548   -0.450016
     15          8           0        4.670872   -1.604824    0.542504
     16          8           0       -0.038367    1.519451   -1.745813
     17          8           0        3.959227    0.498204    0.050103
     18          1           0       -4.003815   -3.125013   -0.056940
     19          1           0       -3.974794   -1.454634   -0.617740
     20          1           0       -3.783453   -1.494437    1.854832
     21          1           0       -2.408147   -2.590824    1.762479
     22          1           0       -1.609095   -3.407532   -0.635293
     23          1           0       -2.487400   -2.830624   -2.048389
     24          1           0       -2.501102    0.295778    0.737538
     25          1           0       -1.624314   -0.282556    2.156661
     26          1           0       -0.344268   -1.613639   -1.768917
     27          1           0       -1.710170   -0.513178   -1.650378
     28          1           0       -0.220078   -1.732370    0.728163
     29          1           0       -2.374933    3.868313   -0.342133
     30          1           0       -1.306463    3.415181   -1.700825
     31          1           0       -0.739751    4.562160   -0.457770
     32          1           0       -0.497730    3.649647    1.882911
     33          1           0       -0.473107    1.898067    2.130941
     34          1           0       -2.016208    2.724684    1.861405
     35          1           0        1.963329   -1.578791    1.026071
     36          1           0        2.297415   -2.097759   -0.638325
     37          1           0        0.578784    0.504789    1.278999
     38          1           0        2.300164    0.657100   -0.352997
     39          1           0        1.346448   -0.160045   -1.451687
 ---------------------------------------------------------------------

 SCF Done:  E(RB3LYP) =  -805.734495895     A.U. after    1 cycles

 Isotropic polarizability for W=    0.000000      185.66 Bohr**3.
 End of Minotr Frequency-dependent properties file   721 does not exist.

                     1                      2                      3
                     A                      A                      A
 Frequencies --    29.1781                42.4898                56.4722
 Red. masses --     5.2989                 3.2808                 4.4071
 Frc consts  --     0.0027                 0.0035                 0.0083
 IR Inten    --    21.4704                 2.5858                14.2151

                     4                      5                      6
                     A                      A                      A
 Frequencies --    60.6993                73.7809                79.1355
 Red. masses --     2.9176                 6.7091                 1.6118
 Frc consts  --     0.0063                 0.0215                 0.0059
 IR Inten    --     1.3725                 0.3712                 2.3928

                     7                      8                      9
                     A                      A                      A
 Frequencies --    99.5501               112.0519               130.1294
 Red. masses --     1.8391                 1.3921                 2.6870
 Frc consts  --     0.0107                 0.0103                 0.0268
 IR Inten    --     3.7792                 1.5252                 9.3903

                    10                     11                     12
                     A                      A                      A
 Frequencies --   155.6323               186.6845               195.0107
 Red. masses --     3.5583                 3.1213                 3.6693
 Frc consts  --     0.0508                 0.0641                 0.0822
 IR Inten    --     0.8811                11.0463                 6.2246

                    13                     14                     15
                     A                      A                      A
 Frequencies --   232.4238               261.7009               264.4402
 Red. masses --     2.0307                 3.0849                 3.2627
 Frc consts  --     0.0646                 0.1245                 0.1344
 IR Inten    --     1.3903                 4.5744                 9.9522

                    16                     17                     18
                     A                      A                      A
 Frequencies --   278.7080               314.9819               335.6099
 Red. masses --     3.8551                 2.8520                 1.9053
 Frc consts  --     0.1764                 0.1667                 0.1264
 IR Inten    --     9.9429                26.0783                 6.2358

                    19                     20                     21
                     A                      A                      A
 Frequencies --   392.6549               409.1996               441.3612
 Red. masses --     3.5876                 3.0910                 2.9459
 Frc consts  --     0.3259                 0.3049                 0.3381
 IR Inten    --    54.0838                15.7049                 6.5824

                    22                     23                     24
                     A                      A                      A
 Frequencies --   448.9210               464.3283               495.9038
 Red. masses --     3.0441                 2.3279                 2.6306
 Frc consts  --     0.3615                 0.2957                 0.3812
 IR Inten    --     3.6230                 4.9054                15.6048

                    25                     26                     27
                     A                      A                      A
 Frequencies --   537.7739               573.3923               595.0618
 Red. masses --     2.9286                 2.6854                 3.0505
 Frc consts  --     0.4990                 0.5202                 0.6364
 IR Inten    --    67.8417                43.3915                13.7103

                    28                     29                     30
                     A                      A                      A
 Frequencies --   635.1281               694.6881               752.1160
 Red. masses --     4.4376                 5.4435                 3.8726
 Frc consts  --     1.0547                 1.5478                 1.2907
 IR Inten    --    13.1405                 8.7549                11.5582

                    31                     32                     33
                     A                      A                      A
 Frequencies --   775.7967               804.8196               829.6913
 Red. masses --     4.0692                 1.4676                 2.4233
 Frc consts  --     1.4430                 0.5601                 0.9829
 IR Inten    --    14.9531                 1.0368                11.3966

                    34                     35                     36
                     A                      A                      A
 Frequencies --   852.1028               868.5720               904.3923
 Red. masses --     2.4813                 4.3060                 2.2123
 Frc consts  --     1.0615                 1.9140                 1.0661
 IR Inten    --    10.2473                89.4016                15.3231

                    37                     38                     39
                     A                      A                      A
 Frequencies --   911.9040               927.9392               935.0357
 Red. masses --     1.8996                 1.5552                 2.2159
 Frc consts  --     0.9307                 0.7890                 1.1414
 IR Inten    --    11.9487                 0.4265                25.5215

                    40                     41                     42
                     A                      A                      A
 Frequencies --   950.5921               979.7354              1014.9823
 Red. masses --     2.0752                 2.5935                 2.3095
 Frc consts  --     1.1048                 1.4667                 1.4018
 IR Inten    --     9.6790                 5.9322                21.1485

                    43                     44                     45
                     A                      A                      A
 Frequencies --  1030.2501              1045.6515              1053.2271
 Red. masses --     3.6325                 1.9111                 2.0490
 Frc consts  --     2.2716                 1.2311                 1.3392
 IR Inten    --     4.3696                 1.8762                 3.0377

                    46                     47                     48
                     A                      A                      A
 Frequencies --  1080.0554              1082.4246              1089.6526
 Red. masses --     1.8562                 1.6454                 1.6389
 Frc consts  --     1.2758                 1.1359                 1.1465
 IR Inten    --    11.2405                16.3822                 1.4814

                    49                     50                     51
                     A                      A                      A
 Frequencies --  1103.3973              1122.3201              1134.2901
 Red. masses --     1.4723                 1.8243                 1.2291
 Frc consts  --     1.0561                 1.3539                 0.9317
 IR Inten    --     0.6700                18.3952                 1.0143

                    52                     53                     54
                     A                      A                      A
 Frequencies --  1169.9949              1170.6613              1184.2411
 Red. masses --     1.7935                 2.0724                 1.4230
 Frc consts  --     1.4465                 1.6733                 1.1758
 IR Inten    --    83.5949                57.5095                 7.9065

                    55                     56                     57
                     A                      A                      A
 Frequencies --  1201.4202              1243.7037              1263.7585
 Red. masses --     1.2731                 1.4568                 1.3642
 Frc consts  --     1.0827                 1.3277                 1.2837
 IR Inten    --     4.9561                 6.1001                19.9505

                    58                     59                     60
                     A                      A                      A
 Frequencies --  1272.0347              1284.4974              1302.7930
 Red. masses --     3.9827                 1.2609                 1.2768
 Frc consts  --     3.7969                 1.2258                 1.2768
 IR Inten    --    93.8303                76.8603                 1.1155

                    61                     62                     63
                     A                      A                      A
 Frequencies --  1308.5631              1320.0128              1335.0270
 Red. masses --     1.2978                 1.3687                 1.2227
 Frc consts  --     1.3094                 1.4051                 1.2840
 IR Inten    --     4.2336                 8.3152                15.7837

                    64                     65                     66
                     A                      A                      A
 Frequencies --  1356.5774              1363.4344              1370.3608
 Red. masses --     1.3142                 3.5338                 1.3520
 Frc consts  --     1.4250                 3.8704                 1.4959
 IR Inten    --    13.9454               178.1970                30.0038

                    67                     68                     69
                     A                      A                      A
 Frequencies --  1385.1675              1395.9794              1400.2056
 Red. masses --     1.3880                 1.3666                 1.4899
 Frc consts  --     1.5691                 1.5691                 1.7211
 IR Inten    --     5.6892                18.5479                 0.3807

                    70                     71                     72
                     A                      A                      A
 Frequencies --  1402.2075              1415.2943              1425.5038
 Red. masses --     1.4737                 1.5080                 1.5363
 Frc consts  --     1.7072                 1.7796                 1.8394
 IR Inten    --    41.0355               444.6383               224.5633

                    73                     74                     75
                     A                      A                      A
 Frequencies --  1427.8494              1451.8383              1481.0902
 Red. masses --     1.3811                 1.1709                 1.6350
 Frc consts  --     1.6590                 1.4541                 2.1132
 IR Inten    --   117.4831                21.8670                23.1975

                    76                     77                     78
                     A                      A                      A
 Frequencies --  1497.2840              1498.2239              1501.2480
 Red. masses --     1.0845                 1.1464                 1.0490
 Frc consts  --     1.4325                 1.5161                 1.3929
 IR Inten    --    34.8567                15.6510                11.2283

                    79                     80                     81
                     A                      A                      A
 Frequencies --  1506.9236              1510.0962              1512.4592
 Red. masses --     1.0872                 1.0904                 1.0966
 Frc consts  --     1.4546                 1.4650                 1.4780
 IR Inten    --     1.3597                 4.6888                 3.8168

                    82                     83                     84
                     A                      A                      A
 Frequencies --  1516.4432              1518.1850              1525.0959
 Red. masses --     1.0842                 1.0792                 1.0675
 Frc consts  --     1.4690                 1.4656                 1.4628
 IR Inten    --    17.8670                15.0204                12.6658

                    85                     86                     87
                     A                      A                      A
 Frequencies --  1530.2996              1559.7842              1674.7753
 Red. masses --     1.0975                 1.4850                 1.1052
 Frc consts  --     1.5142                 2.1287                 1.8265
 IR Inten    --     1.7008                60.7220               112.4431

                    88                     89                     90
                     A                      A                      A
 Frequencies --  1703.3039              1771.8240              2852.8990
 Red. masses --     6.6094                 6.7820                 1.0742
 Frc consts  --    11.2979                12.5443                 5.1513
 IR Inten    --   555.5972               488.5424               807.8584

                    91                     92                     93
                     A                      A                      A
 Frequencies --  3023.9497              3027.1005              3029.6351
 Red. masses --     1.0696                 1.0657                 1.0762
 Frc consts  --     5.7626                 5.7534                 5.8198
 IR Inten    --    32.9897                28.0397                 0.6807

                    94                     95                     96
                     A                      A                      A
 Frequencies --  3030.2177              3037.0505              3043.6300
 Red. masses --     1.0647                 1.0634                 1.0634
 Frc consts  --     5.7601                 5.7790                 5.8043
 IR Inten    --    72.7101                61.4712                50.9757

                    97                     98                     99
                     A                      A                      A
 Frequencies --  3056.8464              3062.8224              3074.4121
 Red. masses --     1.0386                 1.0404                 1.0956
 Frc consts  --     5.7183                 5.7505                 6.1015
 IR Inten    --    31.0943                77.6431               106.7599

                   100                    101                    102
                     A                      A                      A
 Frequencies --  3074.9029              3078.1983              3082.3452
 Red. masses --     1.0977                 1.0981                 1.1048
 Frc consts  --     6.1149                 6.1306                 6.1846
 IR Inten    --   105.2840                14.3045                49.3756

                   103                    104                    105
                     A                      A                      A
 Frequencies --  3089.0633              3113.3327              3117.0385
 Red. masses --     1.1018                 1.1049                 1.1048
 Frc consts  --     6.1947                 6.3096                 6.3241
 IR Inten    --   141.7049                55.2905                 6.5978

                   106                    107                    108
                     A                      A                      A
 Frequencies --  3123.5791              3145.5954              3185.0657
 Red. masses --     1.0600                 1.0863                 1.1091
 Frc consts  --     6.0936                 6.3330                 6.6289
 IR Inten    --    10.3504                15.5356                 6.9420

                   109                    110                    111
                     A                      A                      A
 Frequencies --  3205.2986              3215.6717              3455.9337
 Red. masses --     1.0988                 1.0945                 1.0742
 Frc consts  --     6.6513                 6.6683                 7.5592
 IR Inten    --     2.1281                20.0404                95.5109

 - Thermochemistry -
 -------------------
 Temperature   298.150 Kelvin.  Pressure   1.00000 Atm.
 Atom     1 has atomic number  6 and mass  12.00000

 Molecular mass:   242.16304 amu.
 Principal axes and moments of inertia in atomic units:
                           1         2         3
     Eigenvalues --  3630.141795668.516557843.96504
           X            0.99972   0.02249  -0.00711
           Y           -0.02237   0.99960   0.01751
           Z            0.00750  -0.01734   0.99982
 This molecule is an asymmetric top.
 Rotational symmetry number  1.
 Warning -- assumption of classical behavior for rotation
           may cause significant error
 Rotational temperatures (Kelvin)      0.02386     0.01528     0.01104
 Rotational constants (GHZ):           0.49715     0.31838     0.23008
 Zero-point vibrational energy     907539.7 (Joules/Mol)
                                  216.90719 (Kcal/Mol)
 Warning -- explicit consideration of  27 degrees of freedom as
           vibrations may cause significant error
 Vibrational temperatures:     41.98    61.13    81.25    87.33   106.15
          (Kelvin)            113.86   143.23   161.22   187.23   223.92
                              268.60   280.58   334.41   376.53   380.47
                              401.00   453.19   482.87   564.94   588.75
                              635.02   645.90   668.06   713.49   773.74
                              824.98   856.16   913.81   999.50  1082.13
                             1116.20  1157.95  1193.74  1225.98  1249.68
                             1301.22  1312.02  1335.10  1345.31  1367.69
                             1409.62  1460.33  1482.30  1504.46  1515.36
                             1553.96  1557.37  1567.77  1587.54  1614.77
                             1631.99  1683.36  1684.32  1703.86  1728.57
                             1789.41  1818.26  1830.17  1848.10  1874.43
                             1882.73  1899.20  1920.80  1951.81  1961.68
                             1971.64  1992.94  2008.50  2014.58  2017.46
                             2036.29  2050.98  2054.35  2088.87  2130.96
                             2154.26  2155.61  2159.96  2168.12  2172.69
                             2176.09  2181.82  2184.33  2194.27  2201.76
                             2244.18  2409.63  2450.67  2549.26  4104.68
                             4350.78  4355.32  4358.96  4359.80  4369.63
                             4379.10  4398.11  4406.71  4423.39  4424.09
                             4428.84  4434.80  4444.47  4479.39  4484.72
                             4494.13  4525.80  4582.59  4611.70  4626.63
                             4972.31

 Zero-point correction=                           0.345664 (Hartree/Particle)
 Thermal correction to Energy=                    0.363755
 Thermal correction to Enthalpy=                  0.364699
 Thermal correction to Gibbs Free Energy=         0.298036
 Sum of electronic and zero-point Energies=           -805.388832
 Sum of electronic and thermal Energies=              -805.370741
 Sum of electronic and thermal Enthalpies=            -805.369797
 Sum of electronic and thermal Free Energies=         -805.436459

                     E (Thermal)             CV                S
                      KCal/Mol        Cal/Mol-Kelvin    Cal/Mol-Kelvin
 Total                  228.260             66.590            140.303
 Electronic               0.000              0.000              0.000
 Translational            0.889              2.981             42.354
 Rotational               0.889              2.981             33.445
 Vibrational            226.482             60.629             64.504
 Vibration     1          0.593              1.984              5.885
 Vibration     2          0.595              1.980              5.139
 Vibration     3          0.596              1.975              4.577
 Vibration     4          0.597              1.973              4.434
 Vibration     5          0.599              1.966              4.050
 Vibration     6          0.600              1.963              3.912
 Vibration     7          0.604              1.949              3.463
 Vibration     8          0.607              1.939              3.233
 Vibration     9          0.612              1.923              2.944
 Vibration    10          0.620              1.896              2.602
 Vibration    11          0.632              1.858              2.261
 Vibration    12          0.636              1.847              2.180
 Vibration    13          0.653              1.791              1.860
 Vibration    14          0.669              1.743              1.650
 Vibration    15          0.671              1.738              1.632
 Vibration    16          0.679              1.713              1.542
 Vibration    17          0.702              1.645              1.336
 Vibration    18          0.717              1.604              1.233
 Vibration    19          0.760              1.486              0.990
 Vibration    20          0.774              1.450              0.929
 Vibration    21          0.801              1.380              0.822
 Vibration    22          0.808              1.363              0.799
 Vibration    23          0.822              1.329              0.754
 Vibration    24          0.851              1.259              0.668
 Vibration    25          0.893              1.167              0.570
 Vibration    26          0.930              1.089              0.498
 Vibration    27          0.953              1.042              0.458

 Normal termination of Gaussian 09 at Sat Feb 17 20:21:42 2018.
