 Gaussian 09, Revision C.01,
 Gaussian 09:  AM64L-G09RevC.01 23-Sep-2011

 ----------------------------------------------------------------------
 #HF/6-31G* Geom=AllCheck Guess=Read Pop=(MK,ReadRadii) Integral=(Grid=
 UltraFine) iop(6/33=2)
 ----------------------------------------------------------------------

 Structure from the checkpoint file:  frag37-conf0.chk
 -----------------------------
 Optimization for frag37-conf0
 -----------------------------
 Charge =  0 Multiplicity = 1

                         Standard orientation:
 ---------------------------------------------------------------------
 Center     Atomic      Atomic             Coordinates (Angstroms)
 Number     Number       Type             X           Y           Z
 ---------------------------------------------------------------------
      1          6           0       -0.211686    1.524803   -0.517715
      2          6           0        3.826390   -0.749604    0.232684
      3          6           0       -3.363730   -2.238571   -0.146950
      4          6           0       -2.914856   -1.765193    1.242326
      5          6           0       -2.155664   -2.544745   -1.042794
      6          6           0       -1.958268   -0.565326    1.150770
      7          6           0       -1.202702   -1.341681   -1.141489
      8          6           0       -0.740831   -0.885890    0.258550
      9          6           0       -1.342090    3.664992   -0.642745
     10          6           0       -0.957232    2.701527    1.582422
     11          6           0        2.356571   -1.262151    0.058580
     12          6           0        0.282653    0.282402    0.253603
     13          7           0       -0.822874    2.539497    0.136244
     14          7           0        1.557661   -0.099548   -0.450016
     15          8           0        4.670872   -1.604824    0.542504
     16          8           0       -0.038367    1.519451   -1.745813
     17          8           0        3.959227    0.498204    0.050103
     18          1           0       -4.003815   -3.125013   -0.056940
     19          1           0       -3.974794   -1.454634   -0.617740
     20          1           0       -3.783453   -1.494437    1.854832
     21          1           0       -2.408147   -2.590824    1.762479
     22          1           0       -1.609095   -3.407532   -0.635293
     23          1           0       -2.487400   -2.830624   -2.048389
     24          1           0       -2.501102    0.295778    0.737538
     25          1           0       -1.624314   -0.282556    2.156661
     26          1           0       -0.344268   -1.613639   -1.768917
     27          1           0       -1.710170   -0.513178   -1.650378
     28          1           0       -0.220078   -1.732370    0.728163
     29          1           0       -2.374933    3.868313   -0.342133
     30          1           0       -1.306463    3.415181   -1.700825
     31          1           0       -0.739751    4.562160   -0.457770
     32          1           0       -0.497730    3.649647    1.882911
     33          1           0       -0.473107    1.898067    2.130941
     34          1           0       -2.016208    2.724684    1.861405
     35          1           0        1.963329   -1.578791    1.026071
     36          1           0        2.297415   -2.097759   -0.638325
     37          1           0        0.578784    0.504789    1.278999
     38          1           0        2.300164    0.657100   -0.352997
     39          1           0        1.346448   -0.160045   -1.451687
 ---------------------------------------------------------------------

 SCF Done:  E(RHF) =  -800.694199935     A.U. after   13 cycles

 The electronic state is 1-A.
 Alpha  occ. eigenvalues --  -20.56493 -20.47221 -20.45469 -15.68625 -15.64031
 Alpha  occ. eigenvalues --  -11.40055 -11.34101 -11.31213 -11.30726 -11.28704
 Alpha  occ. eigenvalues --  -11.28570 -11.28368 -11.26254 -11.25464 -11.25073
 Alpha  occ. eigenvalues --  -11.24694 -11.24492  -1.41943  -1.34778  -1.30700
 Alpha  occ. eigenvalues --   -1.28501  -1.23439  -1.15851  -1.08064  -1.03686
 Alpha  occ. eigenvalues --   -1.01573  -1.00734  -0.97877  -0.93859  -0.86814
 Alpha  occ. eigenvalues --   -0.85256  -0.80561  -0.78590  -0.77148  -0.75005
 Alpha  occ. eigenvalues --   -0.70962  -0.69639  -0.68849  -0.67371  -0.66213
 Alpha  occ. eigenvalues --   -0.65433  -0.63983  -0.63310  -0.62878  -0.60727
 Alpha  occ. eigenvalues --   -0.59473  -0.59381  -0.58678  -0.57890  -0.56765
 Alpha  occ. eigenvalues --   -0.56042  -0.55909  -0.54469  -0.53989  -0.53899
 Alpha  occ. eigenvalues --   -0.52178  -0.51626  -0.49675  -0.48613  -0.46865
 Alpha  occ. eigenvalues --   -0.46293  -0.45479  -0.40967  -0.38209  -0.35881
 Alpha  occ. eigenvalues --   -0.35160
 Alpha virt. eigenvalues --    0.13808   0.17688   0.18681   0.19835   0.21240
 Alpha virt. eigenvalues --    0.22393   0.23056   0.24996   0.25662   0.26411
 Alpha virt. eigenvalues --    0.26895   0.27138   0.27455   0.28235   0.29206

 Mulliken atomic charges:
              1
     1  C    0.827538
     2  C    0.794922
     3  C   -0.314650
     4  C   -0.315267
     5  C   -0.318865
     6  C   -0.324762
     7  C   -0.323793
     8  C   -0.178813
     9  C   -0.304296
    10  C   -0.289318
    11  C   -0.274334
    12  C   -0.095486
    13  N   -0.674954
    14  N   -0.817176
    15  O   -0.681448
    16  O   -0.657312
    17  O   -0.755907
    18  H    0.175970
    19  H    0.158107
    20  H    0.175013
    21  H    0.163785
    22  H    0.160992
    23  H    0.179817
    24  H    0.169174
    25  H    0.166137
    26  H    0.162272
    27  H    0.191826
    28  H    0.192098
    29  H    0.175127
    30  H    0.244407
    31  H    0.185802
    32  H    0.199602
    33  H    0.186152
    34  H    0.188461
    35  H    0.214817
    36  H    0.223919
    37  H    0.236831
    38  H    0.494761
    39  H    0.458850
 Sum of Mulliken atomic charges =   0.00000

 Dipole moment (field-independent basis, Debye):
    X=            -13.7538    Y=              2.1516    Z=              1.4272  Tot=             13.9940
 Quadrupole moment (field-independent basis, Debye-Ang):
   XX=           -166.2216   YY=            -96.2862   ZZ=           -103.9613
   XY=              4.7460   XZ=             -8.2903   YZ=              8.5371

 Normal termination of Gaussian 09 at Sun Feb 18 17:09:38 2018.
