 Gaussian 09, Revision C.01,
 Gaussian 09:  AM64L-G09RevC.01 23-Sep-2011

 ---------------------------------------------------------
 #B3LYP/6-31G* Integral=(Grid=UltraFine) freq Opt pop=none
 ---------------------------------------------------------

 99/9=1/99;
 -----------------------------
 Optimization for frag34-conf2
 -----------------------------
 Charge =  0 Multiplicity = 1

 SCF Done:  E(RB3LYP) =  -1449.58909779     A.U. after   15 cycles
 SCF Done:  E(RB3LYP) =  -1449.59278226     A.U. after   12 cycles
 SCF Done:  E(RB3LYP) =  -1449.59316708     A.U. after   11 cycles
 SCF Done:  E(RB3LYP) =  -1449.59325805     A.U. after   11 cycles
 SCF Done:  E(RB3LYP) =  -1449.59333057     A.U. after   12 cycles
 SCF Done:  E(RB3LYP) =  -1449.59339147     A.U. after   12 cycles
 SCF Done:  E(RB3LYP) =  -1449.59341604     A.U. after   11 cycles
 SCF Done:  E(RB3LYP) =  -1449.59341862     A.U. after    9 cycles
 SCF Done:  E(RB3LYP) =  -1449.59341958     A.U. after    8 cycles
 SCF Done:  E(RB3LYP) =  -1449.59341982     A.U. after    7 cycles
 Optimization completed.
    -- Stationary point found.
 Normal termination of Gaussian 09 at Fri Feb 16 20:33:25 2018.

 --------------------------------------------------------------------
 #N Geom=AllCheck Guess=TCheck SCRF=Check GenChk RB3LYP/6-31G(d) Freq
 --------------------------------------------------------------------

 Structure from the checkpoint file:  frag34-conf2.chk
 -----------------------------
 Optimization for frag34-conf2
 -----------------------------
 Charge =  0 Multiplicity = 1

                         Standard orientation:
 ---------------------------------------------------------------------
 Center     Atomic      Atomic             Coordinates (Angstroms)
 Number     Number       Type             X           Y           Z
 ---------------------------------------------------------------------
      1          6           0       -1.523543   -1.613629    0.115887
      2          6           0       -0.132851   -1.610776    0.006583
      3          6           0       -0.154223    0.808785   -0.193632
      4          6           0       -2.244162   -0.412811    0.075094
      5          6           0        0.542542   -0.403716   -0.140888
      6          6           0       -1.534726    0.800920   -0.081363
      7          6           0        4.116378    1.073866    1.015862
      8          6           0       -4.347867   -1.513567    0.320332
      9          7           0        2.791744    0.430366    1.074510
     10          8           0        2.761142   -1.807903   -0.285988
     11          8           0        2.699611    0.458922   -1.451096
     12          8           0       -3.587200   -0.319421    0.174458
     13         16           0        2.320731   -0.405555   -0.330055
     14         17           0       -2.417413    2.309191   -0.137988
     15          1           0       -2.043987   -2.557023    0.229577
     16          1           0        0.426444   -2.539409    0.029928
     17          1           0        0.374186    1.746596   -0.320219
     18          1           0        4.133823    1.753714    0.163408
     19          1           0        4.947603    0.362816    0.924242
     20          1           0        4.238699    1.654616    1.934218
     21          1           0       -5.388538   -1.192030    0.374241
     22          1           0       -4.081308   -2.046452    1.241375
     23          1           0       -4.214338   -2.179014   -0.541295
     24          1           0        2.711827   -0.210968    1.863373
 ---------------------------------------------------------------------

 SCF Done:  E(RB3LYP) =  -1449.59341982     A.U. after    1 cycles

 Isotropic polarizability for W=    0.000000      129.01 Bohr**3.
 End of Minotr Frequency-dependent properties file   721 does not exist.

                     1                      2                      3
                     A                      A                      A
 Frequencies --    16.9126                53.3885                60.8326
 Red. masses --     6.0263                 2.6556                 3.8120
 Frc consts  --     0.0010                 0.0045                 0.0083
 IR Inten    --     2.7379                 1.4584                 2.5465

                     4                      5                      6
                     A                      A                      A
 Frequencies --   104.0755               129.8531               148.1674
 Red. masses --     3.4527                 6.0958                 4.2176
 Frc consts  --     0.0220                 0.0606                 0.0546
 IR Inten    --     2.1785                 3.9826                 1.9601

                     7                      8                      9
                     A                      A                      A
 Frequencies --   166.0601               184.6411               209.0886
 Red. masses --     1.4669                 5.1325                 2.8712
 Frc consts  --     0.0238                 0.1031                 0.0740
 IR Inten    --     2.2162                 1.4261                 3.7269

                    10                     11                     12
                     A                      A                      A
 Frequencies --   246.1234               256.1927               276.0521
 Red. masses --     1.5798                 3.0450                 7.9252
 Frc consts  --     0.0564                 0.1178                 0.3558
 IR Inten    --     1.5019                 1.6746                 1.6182

                    13                     14                     15
                     A                      A                      A
 Frequencies --   293.2014               342.2549               372.6051
 Red. masses --     4.3545                 4.3622                 4.9562
 Frc consts  --     0.2206                 0.3011                 0.4054
 IR Inten    --     6.9259                 7.9138                 2.7500

                    16                     17                     18
                     A                      A                      A
 Frequencies --   411.3480               439.9270               453.9949
 Red. masses --     7.1508                 5.8178                 3.6154
 Frc consts  --     0.7129                 0.6634                 0.4390
 IR Inten    --     2.5200                 5.8061                 6.4103

                    19                     20                     21
                     A                      A                      A
 Frequencies --   485.1686               550.3205               577.0470
 Red. masses --     8.2676                 5.1294                 4.4960
 Frc consts  --     1.1466                 0.9153                 0.8821
 IR Inten    --     3.5306                14.9908                 2.3467

                    22                     23                     24
                     A                      A                      A
 Frequencies --   588.5269               642.5851               687.6317
 Red. masses --     6.9919                 4.9171                 5.6416
 Frc consts  --     1.4268                 1.1962                 1.5717
 IR Inten    --   122.8005                77.0596                99.1931

                    25                     26                     27
                     A                      A                      A
 Frequencies --   719.4559               728.8162               827.2381
 Red. masses --     4.5030                 5.5899                 1.5756
 Frc consts  --     1.3733                 1.7494                 0.6353
 IR Inten    --     7.8632                30.2836                72.5672

                    28                     29                     30
                     A                      A                      A
 Frequencies --   832.4465               860.9950               891.3654
 Red. masses --     1.6134                 4.9393                 1.3621
 Frc consts  --     0.6587                 2.1573                 0.6376
 IR Inten    --    39.3823                84.5523                 8.3829

                    31                     32                     33
                     A                      A                      A
 Frequencies --   961.8706              1055.7153              1058.0380
 Red. masses --     1.2854                 5.1943                 4.1024
 Frc consts  --     0.7007                 3.4109                 2.7058
 IR Inten    --     0.4029                 1.8453               129.8061

                    34                     35                     36
                     A                      A                      A
 Frequencies --  1094.2150              1101.2937              1143.0653
 Red. masses --     4.3414                 4.3543                 2.9774
 Frc consts  --     3.0626                 3.1115                 2.2921
 IR Inten    --    74.7949                72.1170               118.0372

                    37                     38                     39
                     A                      A                      A
 Frequencies --  1152.7901              1157.8887              1178.2329
 Red. masses --     1.6552                 1.4725                 1.3073
 Frc consts  --     1.2960                 1.1631                 1.0693
 IR Inten    --    96.1380                53.9730                39.9861

                    40                     41                     42
                     A                      A                      A
 Frequencies --  1183.8139              1220.1628              1295.5766
 Red. masses --     1.2681                 1.3473                 1.6161
 Frc consts  --     1.0471                 1.1818                 1.5983
 IR Inten    --     0.8012                 1.9239                41.0414

                    43                     44                     45
                     A                      A                      A
 Frequencies --  1313.5553              1320.8373              1364.1726
 Red. masses --     6.8415                 3.1434                 7.1489
 Frc consts  --     6.9550                 3.2311                 7.8384
 IR Inten    --   124.3159               199.4842                69.7249

                    46                     47                     48
                     A                      A                      A
 Frequencies --  1431.5186              1441.0942              1471.1065
 Red. masses --     3.2779                 1.3378                 1.1482
 Frc consts  --     3.9576                 1.6369                 1.4640
 IR Inten    --    15.4446                46.3136                 5.2463

                    49                     50                     51
                     A                      A                      A
 Frequencies --  1496.3796              1520.6694              1523.1203
 Red. masses --     1.2938                 1.0537                 1.0474
 Frc consts  --     1.7069                 1.4356                 1.4317
 IR Inten    --    43.6510                13.6017                 7.1506

                    52                     53                     54
                     A                      A                      A
 Frequencies --  1529.6030              1540.2354              1543.5215
 Red. masses --     1.1499                 2.0383                 1.0441
 Frc consts  --     1.5852                 2.8490                 1.4656
 IR Inten    --    76.9255                58.5072                 9.5517

                    55                     56                     57
                     A                      A                      A
 Frequencies --  1618.8734              1642.0204              3038.0772
 Red. masses --     6.8607                 6.0247                 1.0342
 Frc consts  --    10.5936                 9.5707                 5.6241
 IR Inten    --     4.8869                90.9990                50.0853

                    58                     59                     60
                     A                      A                      A
 Frequencies --  3045.4778              3103.2185              3125.2062
 Red. masses --     1.0440                 1.1075                 1.0959
 Frc consts  --     5.7049                 6.2835                 6.3063
 IR Inten    --    60.2347                32.8847                18.9679

                    61                     62                     63
                     A                      A                      A
 Frequencies --  3172.6182              3179.3892              3228.0937
 Red. masses --     1.1008                 1.1013                 1.0876
 Frc consts  --     6.5280                 6.5592                 6.6774
 IR Inten    --    16.7655                 3.7667                 3.1029

                    64                     65                     66
                     A                      A                      A
 Frequencies --  3239.3647              3240.4154              3504.1360
 Red. masses --     1.0917                 1.0938                 1.0746
 Frc consts  --     6.7497                 6.7671                 7.7746
 IR Inten    --     0.1636                 6.6109                12.0122

 - Thermochemistry -
 -------------------
 Temperature   298.150 Kelvin.  Pressure   1.00000 Atm.
 Atom     1 has atomic number  6 and mass  12.00000

 Molecular mass:   235.00699 amu.
 Principal axes and moments of inertia in atomic units:
                           1         2         3
     Eigenvalues --  1734.526976067.881177227.83511
           X            0.99914   0.04051   0.00838
           Y           -0.04053   0.99917   0.00285
           Z           -0.00825  -0.00318   0.99996
 This molecule is an asymmetric top.
 Rotational symmetry number  1.
 Warning -- assumption of classical behavior for rotation
           may cause significant error
 Rotational temperatures (Kelvin)      0.04994     0.01427     0.01198
 Rotational constants (GHZ):           1.04048     0.29743     0.24969
 Zero-point vibrational energy     471278.9 (Joules/Mol)
                                  112.63836 (Kcal/Mol)
 Warning -- explicit consideration of  22 degrees of freedom as
           vibrations may cause significant error
 Vibrational temperatures:     24.33    76.81    87.52   149.74   186.83
          (Kelvin)            213.18   238.92   265.66   300.83   354.12
                              368.60   397.18   421.85   492.43   536.09
                              591.84   632.96   653.20   698.05   791.79
                              830.24   846.76   924.54   989.35  1035.14
                             1048.60  1190.21  1197.70  1238.78  1282.47
                             1383.92  1518.94  1522.28  1574.33  1584.51
                             1644.61  1658.61  1665.94  1695.21  1703.24
                             1755.54  1864.04  1889.91  1900.39  1962.74
                             2059.63  2073.41  2116.59  2152.95  2187.90
                             2191.43  2200.75  2216.05  2220.78  2329.19
                             2362.50  4371.11  4381.76  4464.83  4496.47
                             4564.68  4574.43  4644.50  4660.72  4662.23
                             5041.66

 Zero-point correction=                           0.179501 (Hartree/Particle)
 Thermal correction to Energy=                    0.193909
 Thermal correction to Enthalpy=                  0.194853
 Thermal correction to Gibbs Free Energy=         0.136334
 Sum of electronic and zero-point Energies=          -1449.413919
 Sum of electronic and thermal Energies=             -1449.399511
 Sum of electronic and thermal Enthalpies=           -1449.398567
 Sum of electronic and thermal Free Energies=        -1449.457085

                     E (Thermal)             CV                S
                      KCal/Mol        Cal/Mol-Kelvin    Cal/Mol-Kelvin
 Total                  121.680             51.957            123.163
 Electronic               0.000              0.000              0.000
 Translational            0.889              2.981             42.265
 Rotational               0.889              2.981             32.698
 Vibrational            119.902             45.996             48.201
 Vibration     1          0.593              1.986              6.967
 Vibration     2          0.596              1.976              4.688
 Vibration     3          0.597              1.973              4.430
 Vibration     4          0.605              1.946              3.377
 Vibration     5          0.612              1.923              2.948
 Vibration     6          0.618              1.905              2.696
 Vibration     7          0.624              1.884              2.480
 Vibration     8          0.631              1.861              2.281
 Vibration     9          0.642              1.827              2.052
 Vibration    10          0.661              1.769              1.758
 Vibration    11          0.666              1.752              1.688
 Vibration    12          0.678              1.718              1.558
 Vibration    13          0.688              1.686              1.455
 Vibration    14          0.721              1.591              1.202
 Vibration    15          0.744              1.528              1.069
 Vibration    16          0.775              1.446              0.922
 Vibration    17          0.800              1.383              0.827
 Vibration    18          0.812              1.352              0.784
 Vibration    19          0.841              1.283              0.696
 Vibration    20          0.906              1.139              0.544
 Vibration    21          0.934              1.081              0.491
 Vibration    22          0.946              1.056              0.470

 Normal termination of Gaussian 09 at Fri Feb 16 20:53:02 2018.
