 Gaussian 09, Revision C.01,
 Gaussian 09:  AM64L-G09RevC.01 23-Sep-2011

 ----------------------------------------------------------------------
 #HF/6-31G* Geom=AllCheck Guess=Read Pop=(MK,ReadRadii) Integral=(Grid=
 UltraFine) iop(6/33=2)
 ----------------------------------------------------------------------

 Structure from the checkpoint file:  frag34-conf2.chk
 -----------------------------
 Optimization for frag34-conf2
 -----------------------------
 Charge =  0 Multiplicity = 1

                         Standard orientation:
 ---------------------------------------------------------------------
 Center     Atomic      Atomic             Coordinates (Angstroms)
 Number     Number       Type             X           Y           Z
 ---------------------------------------------------------------------
      1          6           0       -1.523543   -1.613629    0.115887
      2          6           0       -0.132851   -1.610776    0.006583
      3          6           0       -0.154223    0.808785   -0.193632
      4          6           0       -2.244162   -0.412811    0.075094
      5          6           0        0.542542   -0.403716   -0.140888
      6          6           0       -1.534726    0.800920   -0.081363
      7          6           0        4.116378    1.073866    1.015862
      8          6           0       -4.347867   -1.513567    0.320332
      9          7           0        2.791744    0.430366    1.074510
     10          8           0        2.761142   -1.807903   -0.285988
     11          8           0        2.699611    0.458922   -1.451096
     12          8           0       -3.587200   -0.319421    0.174458
     13         16           0        2.320731   -0.405555   -0.330055
     14         17           0       -2.417413    2.309191   -0.137988
     15          1           0       -2.043987   -2.557023    0.229577
     16          1           0        0.426444   -2.539409    0.029928
     17          1           0        0.374186    1.746596   -0.320219
     18          1           0        4.133823    1.753714    0.163408
     19          1           0        4.947603    0.362816    0.924242
     20          1           0        4.238699    1.654616    1.934218
     21          1           0       -5.388538   -1.192030    0.374241
     22          1           0       -4.081308   -2.046452    1.241375
     23          1           0       -4.214338   -2.179014   -0.541295
     24          1           0        2.711827   -0.210968    1.863373
 ---------------------------------------------------------------------

 SCF Done:  E(RHF) =  -1444.69047738     A.U. after   14 cycles

 The electronic state is 1-A.
 Alpha  occ. eigenvalues -- -104.83244 -92.21458 -20.62126 -20.56061 -20.55778
 Alpha  occ. eigenvalues --  -15.61212 -11.34781 -11.31763 -11.30871 -11.28553
 Alpha  occ. eigenvalues --  -11.28438 -11.28177 -11.27393 -11.26528 -10.56515
 Alpha  occ. eigenvalues --   -9.18535  -8.03460  -8.03112  -8.03111  -6.87114
 Alpha  occ. eigenvalues --   -6.87106  -6.87039  -1.45388  -1.44151  -1.33580
 Alpha  occ. eigenvalues --   -1.23063  -1.20202  -1.13537  -1.06228  -1.02376
 Alpha  occ. eigenvalues --   -0.98417  -0.95315  -0.87887  -0.85779  -0.80815
 Alpha  occ. eigenvalues --   -0.74881  -0.73105  -0.70902  -0.68884  -0.67853
 Alpha  occ. eigenvalues --   -0.66659  -0.65021  -0.62600  -0.61387  -0.61039
 Alpha  occ. eigenvalues --   -0.60162  -0.58675  -0.56796  -0.56460  -0.55227
 Alpha  occ. eigenvalues --   -0.51456  -0.51084  -0.50446  -0.49429  -0.48203
 Alpha  occ. eigenvalues --   -0.47146  -0.46681  -0.45160  -0.42561  -0.36238
 Alpha  occ. eigenvalues --   -0.34079
 Alpha virt. eigenvalues --    0.09885   0.10814   0.18341   0.21224   0.22514
 Alpha virt. eigenvalues --    0.25053   0.25938   0.26709   0.27062   0.28039
 Alpha virt. eigenvalues --    0.29111   0.29835   0.30246   0.30371   0.31143

 Mulliken atomic charges:
              1
     1  C   -0.287446
     2  C   -0.153044
     3  C   -0.115114
     4  C    0.498951
     5  C   -0.352977
     6  C   -0.216806
     7  C   -0.324612
     8  C   -0.197839
     9  N   -0.858032
    10  O   -0.688403
    11  O   -0.700090
    12  O   -0.637692
    13  S    1.663487
    14  Cl   0.041045
    15  H    0.229920
    16  H    0.276655
    17  H    0.275979
    18  H    0.228449
    19  H    0.181955
    20  H    0.190535
    21  H    0.208958
    22  H    0.172221
    23  H    0.174894
    24  H    0.389005
 Sum of Mulliken atomic charges =   0.00000

 Dipole moment (field-independent basis, Debye):
    X=             -2.5498    Y=             -1.9387    Z=              3.9876  Tot=              5.1148
 Quadrupole moment (field-independent basis, Debye-Ang):
   XX=            -87.9598   YY=            -94.7440   ZZ=            -98.7618
   XY=             18.7763   XZ=             11.2292   YZ=             -1.1122

 Normal termination of Gaussian 09 at Sat Feb 17 21:03:36 2018.
