 Gaussian 09, Revision C.01,
 Gaussian 09:  AM64L-G09RevC.01 23-Sep-2011

 ---------------------------------------------------------
 #B3LYP/6-31G* Integral=(Grid=UltraFine) freq Opt pop=none
 ---------------------------------------------------------

 99/9=1/99;
 -----------------------------
 Optimization for frag39-conf0
 -----------------------------
 Charge =  0 Multiplicity = 1

 SCF Done:  E(RB3LYP) =  -327.151440694     A.U. after   14 cycles
 SCF Done:  E(RB3LYP) =  -327.153126465     A.U. after   12 cycles
 SCF Done:  E(RB3LYP) =  -327.153252756     A.U. after   10 cycles
 SCF Done:  E(RB3LYP) =  -327.153326381     A.U. after   11 cycles
 SCF Done:  E(RB3LYP) =  -327.153383085     A.U. after   10 cycles
 SCF Done:  E(RB3LYP) =  -327.153466603     A.U. after   11 cycles
 SCF Done:  E(RB3LYP) =  -327.153539358     A.U. after   12 cycles
 SCF Done:  E(RB3LYP) =  -327.153568022     A.U. after   11 cycles
 SCF Done:  E(RB3LYP) =  -327.153587624     A.U. after   11 cycles
 SCF Done:  E(RB3LYP) =  -327.153615771     A.U. after   10 cycles
 SCF Done:  E(RB3LYP) =  -327.153654448     A.U. after   12 cycles
 SCF Done:  E(RB3LYP) =  -327.153662489     A.U. after   11 cycles
 SCF Done:  E(RB3LYP) =  -327.153668557     A.U. after   11 cycles
 SCF Done:  E(RB3LYP) =  -327.153675388     A.U. after   10 cycles
 SCF Done:  E(RB3LYP) =  -327.153679077     A.U. after    9 cycles
 SCF Done:  E(RB3LYP) =  -327.153679312     A.U. after    8 cycles
 SCF Done:  E(RB3LYP) =  -327.153679368     A.U. after    7 cycles
 Optimization completed.
    -- Stationary point found.
 Normal termination of Gaussian 09 at Fri Feb 16 20:38:30 2018.

 --------------------------------------------------------------------
 #N Geom=AllCheck Guess=TCheck SCRF=Check GenChk RB3LYP/6-31G(d) Freq
 --------------------------------------------------------------------

 Structure from the checkpoint file:  frag39-conf0.chk
 -----------------------------
 Optimization for frag39-conf0
 -----------------------------
 Charge =  0 Multiplicity = 1

                         Standard orientation:
 ---------------------------------------------------------------------
 Center     Atomic      Atomic             Coordinates (Angstroms)
 Number     Number       Type             X           Y           Z
 ---------------------------------------------------------------------
      1          6           0       -1.324663    0.054485    0.161090
      2          6           0       -2.528863    0.071401   -0.771708
      3          6           0        2.095006    1.141990   -0.429932
      4          6           0        2.161350   -0.365646   -0.171830
      5          6           0        0.926094   -0.925748    0.549390
      6          7           0       -0.308275   -0.784499   -0.211166
      7          8           0       -1.285794    0.743899    1.172803
      8          1           0       -3.417496   -0.220651   -0.203664
      9          1           0       -2.689095    1.095975   -1.121095
     10          1           0       -2.430383   -0.588592   -1.639826
     11          1           0        1.240391    1.397635   -1.065541
     12          1           0        1.984779    1.698238    0.507743
     13          1           0        3.003287    1.495558   -0.930631
     14          1           0        3.041216   -0.602037    0.442063
     15          1           0        2.302117   -0.901629   -1.122160
     16          1           0        1.081851   -1.987181    0.784506
     17          1           0        0.758286   -0.395676    1.490520
     18          1           0       -0.404220   -1.310233   -1.068242
 ---------------------------------------------------------------------

 SCF Done:  E(RB3LYP) =  -327.153679368     A.U. after    1 cycles

 Isotropic polarizability for W=    0.000000       62.33 Bohr**3.
 End of Minotr Frequency-dependent properties file   721 does not exist.

                     1                      2                      3
                     A                      A                      A
 Frequencies --    32.7431                51.2695                79.2780
 Red. masses --     3.4370                 1.3113                 2.0783
 Frc consts  --     0.0022                 0.0020                 0.0077
 IR Inten    --     3.7390                 5.3530                 2.2030

                     4                      5                      6
                     A                      A                      A
 Frequencies --   125.7605               232.9820               258.1982
 Red. masses --     1.6977                 1.3498                 3.3443
 Frc consts  --     0.0158                 0.0432                 0.1314
 IR Inten    --     3.1003                 2.0556                 3.8438

                     7                      8                      9
                     A                      A                      A
 Frequencies --   333.3146               401.1274               436.0620
 Red. masses --     2.1111                 2.7162                 1.2496
 Frc consts  --     0.1382                 0.2575                 0.1400
 IR Inten    --     3.0010                 4.7540                86.4610

                    10                     11                     12
                     A                      A                      A
 Frequencies --   499.3526               609.5685               633.8197
 Red. masses --     2.1276                 3.7421                 2.2716
 Frc consts  --     0.3126                 0.8192                 0.5377
 IR Inten    --    16.4215                 4.6334                 1.0264

                    13                     14                     15
                     A                      A                      A
 Frequencies --   789.5614               844.0638               887.4305
 Red. masses --     1.2693                 2.2822                 2.3002
 Frc consts  --     0.4662                 0.9580                 1.0673
 IR Inten    --     3.9032                 3.0215                 1.7776

                    16                     17                     18
                     A                      A                      A
 Frequencies --   951.6386               997.3826              1036.2993
 Red. masses --     1.6535                 1.9578                 1.5857
 Frc consts  --     0.8823                 1.1474                 1.0033
 IR Inten    --     1.5658                 3.1434                 6.0236

                    19                     20                     21
                     A                      A                      A
 Frequencies --  1066.1546              1102.6586              1138.3395
 Red. masses --     1.6989                 2.4950                 2.1403
 Frc consts  --     1.1378                 1.7873                 1.6341
 IR Inten    --    10.1091                 8.8403                 1.2735

                    22                     23                     24
                     A                      A                      A
 Frequencies --  1183.0276              1269.7569              1304.2115
 Red. masses --     2.0478                 1.6635                 1.4268
 Frc consts  --     1.6886                 1.5802                 1.4299
 IR Inten    --    15.4277                58.1508                97.0532

                    25                     26                     27
                     A                      A                      A
 Frequencies --  1320.3580              1399.1067              1409.4735
 Red. masses --     1.1671                 1.3717                 1.3102
 Frc consts  --     1.1988                 1.5820                 1.5336
 IR Inten    --     0.6956                10.3867                 3.8883

                    28                     29                     30
                     A                      A                      A
 Frequencies --  1426.5944              1445.8614              1501.2561
 Red. masses --     1.2654                 1.2696                 1.0459
 Frc consts  --     1.5173                 1.5637                 1.3888
 IR Inten    --    22.7827                 5.0564                 5.8847

                    31                     32                     33
                     A                      A                      A
 Frequencies --  1509.7277              1512.7270              1517.5986
 Red. masses --     1.0912                 1.0718                 1.0707
 Frc consts  --     1.4654                 1.4450                 1.4529
 IR Inten    --    23.6242                 4.0717                 9.8945

                    34                     35                     36
                     A                      A                      A
 Frequencies --  1528.7074              1535.8166              1565.5386
 Red. masses --     1.0529                 1.0649                 1.8623
 Frc consts  --     1.4497                 1.4799                 2.6892
 IR Inten    --     8.7388                11.5607               184.0433

                    37                     38                     39
                     A                      A                      A
 Frequencies --  1787.0488              3022.3320              3042.0458
 Red. masses --     9.0013                 1.0642                 1.0716
 Frc consts  --    16.9367                 5.7275                 5.8430
 IR Inten    --   221.9911                28.0328                59.6518

                    40                     41                     42
                     A                      A                      A
 Frequencies --  3053.1699              3061.7034              3062.2828
 Red. masses --     1.0361                 1.0968                 1.0362
 Frc consts  --     5.6907                 6.0577                 5.7251
 IR Inten    --    20.9013                37.5954                 8.6115

                    43                     44                     45
                     A                      A                      A
 Frequencies --  3119.1158              3123.5640              3134.5511
 Red. masses --     1.1026                 1.1023                 1.0949
 Frc consts  --     6.3205                 6.3363                 6.3382
 IR Inten    --    36.6492                32.4935                 4.9955

                    46                     47                     48
                     A                      A                      A
 Frequencies --  3136.9855              3140.9115              3623.2469
 Red. masses --     1.1026                 1.1011                 1.0773
 Frc consts  --     6.3927                 6.4002                 8.3324
 IR Inten    --    26.2874                 6.7849                13.4250

 - Thermochemistry -
 -------------------
 Temperature   298.150 Kelvin.  Pressure   1.00000 Atm.
 Atom     1 has atomic number  6 and mass  12.00000

 Molecular mass:   101.08406 amu.
 Principal axes and moments of inertia in atomic units:
                           1         2         3
     Eigenvalues --   387.936451243.444391292.59162
           X            0.99968   0.01586   0.01974
           Y           -0.01255   0.98743  -0.15758
           Z           -0.02199   0.15729   0.98731
 This molecule is an asymmetric top.
 Rotational symmetry number  1.
 Rotational temperatures (Kelvin)      0.22327     0.06966     0.06701
 Rotational constants (GHZ):           4.65216     1.45140     1.39622
 Zero-point vibrational energy     420150.8 (Joules/Mol)
                                  100.41844 (Kcal/Mol)
 Warning -- explicit consideration of  11 degrees of freedom as
           vibrations may cause significant error
 Vibrational temperatures:     47.11    73.77   114.06   180.94   335.21
          (Kelvin)            371.49   479.56   577.13   627.40   718.46
                              877.03   911.92  1136.00  1214.42  1276.81
                             1369.19  1435.01  1491.00  1533.96  1586.48
                             1637.81  1702.11  1826.89  1876.47  1899.70
                             2013.00  2027.92  2052.55  2080.27  2159.97
                             2172.16  2176.47  2183.48  2199.47  2209.69
                             2252.46  2571.16  4348.46  4376.82  4392.83
                             4405.10  4405.94  4487.71  4494.11  4509.91
                             4513.42  4519.07  5213.04

 Zero-point correction=                           0.160027 (Hartree/Particle)
 Thermal correction to Energy=                    0.169002
 Thermal correction to Enthalpy=                  0.169946
 Thermal correction to Gibbs Free Energy=         0.125112
 Sum of electronic and zero-point Energies=           -326.993652
 Sum of electronic and thermal Energies=              -326.984678
 Sum of electronic and thermal Enthalpies=            -326.983734
 Sum of electronic and thermal Free Energies=         -327.028567

                     E (Thermal)             CV                S
                      KCal/Mol        Cal/Mol-Kelvin    Cal/Mol-Kelvin
 Total                  106.050             30.370             94.360
 Electronic               0.000              0.000              0.000
 Translational            0.889              2.981             39.750
 Rotational               0.889              2.981             27.924
 Vibrational            104.273             24.408             26.686
 Vibration     1          0.594              1.983              5.656
 Vibration     2          0.596              1.977              4.768
 Vibration     3          0.600              1.963              3.909
 Vibration     4          0.611              1.927              3.010
 Vibration     5          0.654              1.790              1.856
 Vibration     6          0.667              1.749              1.674
 Vibration     7          0.715              1.609              1.244
 Vibration     8          0.767              1.468              0.959
 Vibration     9          0.797              1.392              0.839
 Vibration    10          0.855              1.251              0.660
 Vibration    11          0.969              1.012              0.433

 Optimization completed.
    -- Stationary point found.
 Normal termination of Gaussian 09 at Fri Feb 16 20:45:13 2018.
