 Gaussian 09, Revision C.01,
 Gaussian 09:  AM64L-G09RevC.01 23-Sep-2011

 ----------------------------------------------------------------------
 #HF/6-31G* Geom=AllCheck Guess=Read Pop=(MK,ReadRadii) Integral=(Grid=
 UltraFine) iop(6/33=2)
 ----------------------------------------------------------------------

 Structure from the checkpoint file:  frag39-conf0.chk
 -----------------------------
 Optimization for frag39-conf0
 -----------------------------
 Charge =  0 Multiplicity = 1

                         Standard orientation:
 ---------------------------------------------------------------------
 Center     Atomic      Atomic             Coordinates (Angstroms)
 Number     Number       Type             X           Y           Z
 ---------------------------------------------------------------------
      1          6           0       -1.324663    0.054485    0.161090
      2          6           0       -2.528863    0.071401   -0.771708
      3          6           0        2.095006    1.141990   -0.429932
      4          6           0        2.161350   -0.365646   -0.171830
      5          6           0        0.926094   -0.925748    0.549390
      6          7           0       -0.308275   -0.784499   -0.211166
      7          8           0       -1.285794    0.743899    1.172803
      8          1           0       -3.417496   -0.220651   -0.203664
      9          1           0       -2.689095    1.095975   -1.121095
     10          1           0       -2.430383   -0.588592   -1.639826
     11          1           0        1.240391    1.397635   -1.065541
     12          1           0        1.984779    1.698238    0.507743
     13          1           0        3.003287    1.495558   -0.930631
     14          1           0        3.041216   -0.602037    0.442063
     15          1           0        2.302117   -0.901629   -1.122160
     16          1           0        1.081851   -1.987181    0.784506
     17          1           0        0.758286   -0.395676    1.490520
     18          1           0       -0.404220   -1.310233   -1.068242
 ---------------------------------------------------------------------

 SCF Done:  E(RHF) =  -325.075372920     A.U. after   13 cycles

 The electronic state is 1-A.
 Alpha  occ. eigenvalues --  -20.51497 -15.58613 -11.35070 -11.25997 -11.23747
 Alpha  occ. eigenvalues --  -11.22770 -11.21307  -1.36730  -1.22348  -1.05349
 Alpha  occ. eigenvalues --   -0.99806  -0.92191  -0.81396  -0.78288  -0.67807
 Alpha  occ. eigenvalues --   -0.65388  -0.62831  -0.60215  -0.59297  -0.57351
 Alpha  occ. eigenvalues --   -0.55085  -0.54009  -0.52037  -0.48855  -0.48341
 Alpha  occ. eigenvalues --   -0.47840  -0.41105  -0.37995
 Alpha virt. eigenvalues --    0.19925   0.21207   0.24813   0.26487   0.29272
 Alpha virt. eigenvalues --    0.29861   0.30645   0.32058   0.32325   0.33615
 Alpha virt. eigenvalues --    0.34440   0.34555   0.38703   0.39469   0.43222

 Mulliken atomic charges:
              1
     1  C    0.760949
     2  C   -0.576986
     3  C   -0.477267
     4  C   -0.307759
     5  C   -0.118826
     6  N   -0.804536
     7  O   -0.626566
     8  H    0.207980
     9  H    0.206890
    10  H    0.163011
    11  H    0.161075
    12  H    0.174177
    13  H    0.159434
    14  H    0.161305
    15  H    0.144716
    16  H    0.168038
    17  H    0.225516
    18  H    0.378850
 Sum of Mulliken atomic charges =   0.00000

 Dipole moment (field-independent basis, Debye):
    X=              0.6052    Y=             -2.3552    Z=             -3.0470  Tot=              3.8984
 Quadrupole moment (field-independent basis, Debye-Ang):
   XX=            -41.8227   YY=            -44.6964   ZZ=            -46.0950
   XY=              1.6220   XZ=              5.2317   YZ=             -1.3146

 Normal termination of Gaussian 09 at Sat Feb 17 21:02:28 2018.
