 Gaussian 09, Revision C.01,
 Gaussian 09:  AM64L-G09RevC.01 23-Sep-2011

 ----------------------------------------------------------------------
 #HF/6-31G* Geom=AllCheck Guess=Read Pop=(MK,ReadRadii) Integral=(Grid=
 UltraFine) iop(6/33=2)
 ----------------------------------------------------------------------

 Structure from the checkpoint file:  frag45-conf0.chk
 -----------------------------
 Optimization for frag45-conf0
 -----------------------------
 Charge =  0 Multiplicity = 1

                         Standard orientation:
 ---------------------------------------------------------------------
 Center     Atomic      Atomic             Coordinates (Angstroms)
 Number     Number       Type             X           Y           Z
 ---------------------------------------------------------------------
      1          6           0        2.671355    1.064471    0.440360
      2          6           0        1.489528    1.801686    0.385331
      3          6           0        1.469513   -0.871342   -0.384638
      4          6           0        0.272725   -0.146183   -0.442838
      5          6           0        2.649429   -0.272297    0.051276
      6          6           0        0.308675    1.201744   -0.049885
      7          6           0       -3.265472   -0.868950    0.067034
      8          6           0       -4.082010   -1.141258    1.321651
      9          6           0       -0.991816   -0.836769   -0.909254
     10          7           0       -1.917091   -1.088637    0.186556
     11          8           0       -3.779061   -0.473987   -0.970760
     12         17           0        4.127263   -1.219816    0.109605
     13         17           0       -1.144629    2.184397   -0.113741
     14          1           0        3.593550    1.525146    0.777184
     15          1           0        1.484357    2.846617    0.676361
     16          1           0        1.476682   -1.913693   -0.687974
     17          1           0       -4.531152   -0.201168    1.657658
     18          1           0       -4.899517   -1.822479    1.068976
     19          1           0       -3.501445   -1.568556    2.145482
     20          1           0       -1.542301   -0.228970   -1.632364
     21          1           0       -0.719964   -1.776238   -1.408716
     22          1           0       -1.544426   -1.432795    1.059662
 ---------------------------------------------------------------------

 SCF Done:  E(RHF) =  -1394.34557650     A.U. after   14 cycles

 The electronic state is 1-A.
 Alpha  occ. eigenvalues -- -104.83959-104.83490 -20.52211 -15.59570 -11.35672
 Alpha  occ. eigenvalues --  -11.32369 -11.32254 -11.28368 -11.28052 -11.27318
 Alpha  occ. eigenvalues --  -11.27247 -11.27198 -11.24091 -10.57258 -10.56786
 Alpha  occ. eigenvalues --   -8.04196  -8.03862  -8.03858  -8.03722  -8.03386
 Alpha  occ. eigenvalues --   -8.03383  -1.37512  -1.23886  -1.21024  -1.16450
 Alpha  occ. eigenvalues --   -1.10221  -1.07009  -1.01329  -0.98727  -0.93871
 Alpha  occ. eigenvalues --   -0.85707  -0.81292  -0.79384  -0.70438  -0.69668
 Alpha  occ. eigenvalues --   -0.67826  -0.65687  -0.64984  -0.62384  -0.59956
 Alpha  occ. eigenvalues --   -0.58880  -0.58109  -0.57564  -0.56450  -0.55310
 Alpha  occ. eigenvalues --   -0.54067  -0.51925  -0.51416  -0.50307  -0.46612
 Alpha  occ. eigenvalues --   -0.45941  -0.45592  -0.42035  -0.39442  -0.36378
 Alpha  occ. eigenvalues --   -0.33979
 Alpha virt. eigenvalues --    0.10362   0.10831   0.17111   0.19758   0.20848
 Alpha virt. eigenvalues --    0.21719   0.25523   0.27136   0.27509   0.30308
 Alpha virt. eigenvalues --    0.31032   0.31444   0.31862   0.32665   0.33409

 Mulliken atomic charges:
              1
     1  C   -0.178569
     2  C   -0.172654
     3  C   -0.202657
     4  C    0.035141
     5  C   -0.132538
     6  C   -0.157451
     7  C    0.770102
     8  C   -0.577417
     9  C   -0.139545
    10  N   -0.805227
    11  O   -0.620773
    12  Cl   0.007690
    13  Cl   0.027934
    14  H    0.242470
    15  H    0.242878
    16  H    0.239185
    17  H    0.211571
    18  H    0.209366
    19  H    0.166107
    20  H    0.259473
    21  H    0.188013
    22  H    0.386900
 Sum of Mulliken atomic charges =   0.00000

 Dipole moment (field-independent basis, Debye):
    X=              1.8330    Y=             -1.0011    Z=              3.0062  Tot=              3.6606
 Quadrupole moment (field-independent basis, Debye-Ang):
   XX=           -102.8153   YY=            -84.7491   ZZ=            -90.7481
   XY=              8.4209   XZ=            -10.3422   YZ=              0.3890

 Normal termination of Gaussian 09 at Sat Feb 17 21:05:33 2018.
