 Gaussian 09, Revision C.01,
 Gaussian 09:  AM64L-G09RevC.01 23-Sep-2011

 ---------------------------------------------------------
 #B3LYP/6-31G* Integral=(Grid=UltraFine) freq Opt pop=none
 ---------------------------------------------------------

 99/9=1/99;
 -----------------------------
 Optimization for frag40-conf0
 -----------------------------
 Charge =  1 Multiplicity = 1

 SCF Done:  E(RB3LYP) =  -825.549662428     A.U. after   15 cycles
 SCF Done:  E(RB3LYP) =  -825.560087032     A.U. after   14 cycles
 SCF Done:  E(RB3LYP) =  -825.562703029     A.U. after   15 cycles
 SCF Done:  E(RB3LYP) =  -825.563219906     A.U. after   14 cycles
 SCF Done:  E(RB3LYP) =  -825.564273803     A.U. after   12 cycles
 SCF Done:  E(RB3LYP) =  -825.563802784     A.U. after   13 cycles
 SCF Done:  E(RB3LYP) =  -825.564835316     A.U. after   12 cycles
 SCF Done:  E(RB3LYP) =  -825.564903204     A.U. after   11 cycles
 SCF Done:  E(RB3LYP) =  -825.564944620     A.U. after   11 cycles
 SCF Done:  E(RB3LYP) =  -825.564959637     A.U. after   11 cycles
 SCF Done:  E(RB3LYP) =  -825.565339141     A.U. after   10 cycles
 SCF Done:  E(RB3LYP) =  -825.565341341     A.U. after    9 cycles
 SCF Done:  E(RB3LYP) =  -825.565342294     A.U. after    9 cycles
 SCF Done:  E(RB3LYP) =  -825.565342917     A.U. after    8 cycles
 SCF Done:  E(RB3LYP) =  -825.565343290     A.U. after    7 cycles
 SCF Done:  E(RB3LYP) =  -825.565343404     A.U. after    7 cycles
 SCF Done:  E(RB3LYP) =  -825.565343488     A.U. after    6 cycles
 SCF Done:  E(RB3LYP) =  -825.565343608     A.U. after    6 cycles
 SCF Done:  E(RB3LYP) =  -825.565343663     A.U. after    7 cycles
 Optimization completed.
    -- Stationary point found.
 Normal termination of Gaussian 09 at Fri Feb 16 23:26:09 2018.

 --------------------------------------------------------------------
 #N Geom=AllCheck Guess=TCheck SCRF=Check GenChk RB3LYP/6-31G(d) Freq
 --------------------------------------------------------------------

 Structure from the checkpoint file:  frag40-conf0.chk
 -----------------------------
 Optimization for frag40-conf0
 -----------------------------
 Charge =  1 Multiplicity = 1

                         Standard orientation:
 ---------------------------------------------------------------------
 Center     Atomic      Atomic             Coordinates (Angstroms)
 Number     Number       Type             X           Y           Z
 ---------------------------------------------------------------------
      1          6           0       -3.475280    0.059311    0.116053
      2          6           0        0.929314   -1.541056   -0.464963
      3          6           0        3.184621    2.836781   -0.225182
      4          6           0        2.933411    2.285367    1.184684
      5          6           0        1.891366    2.857898   -1.051196
      6          6           0        2.267611    0.899817    1.141931
      7          6           0        1.228183    1.470682   -1.101434
      8          6           0        0.959481    0.934284    0.321315
      9          6           0       -5.913677    0.403523    0.256337
     10          6           0        2.489543   -3.368843   -0.752730
     11          6           0        2.119799   -2.508234    1.526990
     12          6           0       -2.085054    0.735038    0.019979
     13          6           0        0.227281   -0.433168    0.367562
     14          7           0       -4.535076    0.877259    0.116657
     15          7           0        1.813824   -2.384609    0.102982
     16          7           0       -1.134343   -0.365732   -0.305603
     17          8           0       -3.510171   -1.168931    0.211097
     18          8           0        0.627782   -1.569323   -1.666748
     19          1           0        3.610555    3.844481   -0.165427
     20          1           0        3.931467    2.211449   -0.734609
     21          1           0        3.872798    2.218479    1.744787
     22          1           0        2.287734    2.979203    1.741919
     23          1           0        1.189744    3.583193   -0.613470
     24          1           0        2.093838    3.198750   -2.072602
     25          1           0        2.962469    0.180012    0.688914
     26          1           0        2.065245    0.554536    2.164178
     27          1           0        0.298484    1.533002   -1.684466
     28          1           0        1.876180    0.771204   -1.642466
     29          1           0        0.296962    1.650720    0.831199
     30          1           0       -6.500511    0.690770   -0.620565
     31          1           0       -6.370039    0.828001    1.155125
     32          1           0       -5.891503   -0.682629    0.338165
     33          1           0        3.569757   -3.312217   -0.585413
     34          1           0        2.262437   -3.153974   -1.794638
     35          1           0        2.144993   -4.378642   -0.503332
     36          1           0        1.886607   -3.525195    1.861798
     37          1           0        1.549076   -1.805919    2.130467
     38          1           0        3.185270   -2.322948    1.699780
     39          1           0       -1.821430    1.165127    0.989464
     40          1           0       -2.031210    1.517383   -0.739052
     41          1           0        0.032690   -0.717191    1.403546
     42          1           0       -4.384563    1.873062    0.015414
     43          1           0       -1.696342   -1.221188   -0.082254
     44          1           0       -0.912031   -0.450260   -1.315588
 ---------------------------------------------------------------------

 SCF Done:  E(RB3LYP) =  -825.565343663     A.U. after    1 cycles

 Isotropic polarizability for W=    0.000000      160.74 Bohr**3.
 End of Minotr Frequency-dependent properties file   721 does not exist.

                     1                      2                      3
                     A                      A                      A
 Frequencies --    24.3000                42.7362                54.9139
 Red. masses --     3.6708                 3.2510                 2.9009
 Frc consts  --     0.0013                 0.0035                 0.0052
 IR Inten    --     2.7579                 3.3579                 1.3668

                     4                      5                      6
                     A                      A                      A
 Frequencies --    56.9449                62.2404                67.9125
 Red. masses --     1.8936                 2.7929                 1.7319
 Frc consts  --     0.0036                 0.0064                 0.0047
 IR Inten    --     5.5268                 0.2626                 3.8564

                     7                      8                      9
                     A                      A                      A
 Frequencies --    84.1769               104.3145               115.7667
 Red. masses --     1.5617                 1.6431                 1.7264
 Frc consts  --     0.0065                 0.0105                 0.0136
 IR Inten    --     0.8205                 1.1707                 1.4090

                    10                     11                     12
                     A                      A                      A
 Frequencies --   131.9195               143.4506               163.4513
 Red. masses --     2.4042                 2.9189                 3.5487
 Frc consts  --     0.0247                 0.0354                 0.0559
 IR Inten    --     3.0849                 1.7969                 3.0831

                    13                     14                     15
                     A                      A                      A
 Frequencies --   184.8924               193.9628               227.2970
 Red. masses --     2.6821                 3.3504                 2.7095
 Frc consts  --     0.0540                 0.0743                 0.0825
 IR Inten    --     4.3272                 3.1849                 1.2209

                    16                     17                     18
                     A                      A                      A
 Frequencies --   237.7159               253.6599               266.4864
 Red. masses --     3.3877                 2.6202                 3.0067
 Frc consts  --     0.1128                 0.0993                 0.1258
 IR Inten    --     0.5106                 1.7654                 8.8598

                    19                     20                     21
                     A                      A                      A
 Frequencies --   278.6297               328.2396               346.5901
 Red. masses --     2.6613                 2.1266                 2.7811
 Frc consts  --     0.1217                 0.1350                 0.1968
 IR Inten    --     4.8785                 6.9514                17.0726

                    22                     23                     24
                     A                      A                      A
 Frequencies --   405.5179               415.2236               439.1654
 Red. masses --     3.0283                 3.6581                 3.1072
 Frc consts  --     0.2934                 0.3716                 0.3531
 IR Inten    --    22.8893                60.6044                10.2051

                    25                     26                     27
                     A                      A                      A
 Frequencies --   447.7615               468.3699               481.2399
 Red. masses --     3.0768                 2.3454                 2.4185
 Frc consts  --     0.3634                 0.3031                 0.3300
 IR Inten    --     5.7494                 4.2559                30.1164

                    28                     29                     30
                     A                      A                      A
 Frequencies --   512.4791               534.3766               590.5211
 Red. masses --     1.7625                 2.5739                 2.6196
 Frc consts  --     0.2727                 0.4330                 0.5382
 IR Inten    --    48.3364                45.1708                21.5216

                    31                     32                     33
                     A                      A                      A
 Frequencies --   628.1372               632.6734               704.6647
 Red. masses --     1.9853                 4.2319                 3.5717
 Frc consts  --     0.4615                 0.9980                 1.0449
 IR Inten    --    14.6226                 8.0760                 0.7649

                    34                     35                     36
                     A                      A                      A
 Frequencies --   744.2932               771.1180               802.6851
 Red. masses --     4.1809                 3.8409                 1.4828
 Frc consts  --     1.3646                 1.3456                 0.5629
 IR Inten    --    12.2208                 5.3009                 0.4767

                    37                     38                     39
                     A                      A                      A
 Frequencies --   824.8020               850.8494               884.5691
 Red. masses --     2.2913                 2.6090                 2.4843
 Frc consts  --     0.9184                 1.1128                 1.1453
 IR Inten    --     1.1233                 2.5169                11.2021

                    40                     41                     42
                     A                      A                      A
 Frequencies --   899.6768               910.9365               925.6008
 Red. masses --     2.3007                 1.9154                 1.5290
 Frc consts  --     1.0972                 0.9364                 0.7718
 IR Inten    --     9.2755                 8.4810                 0.2505

                    43                     44                     45
                     A                      A                      A
 Frequencies --   933.7072               947.4366               969.1280
 Red. masses --     2.2478                 1.9898                 2.7477
 Frc consts  --     1.1546                 1.0523                 1.5205
 IR Inten    --    16.6387                 3.8122                 2.8629

                    46                     47                     48
                     A                      A                      A
 Frequencies --  1007.9176              1036.7437              1043.6348
 Red. masses --     2.4338                 4.5553                 2.0966
 Frc consts  --     1.4568                 2.8847                 1.3454
 IR Inten    --    16.9697                 0.6433                 2.3726

                    49                     50                     51
                     A                      A                      A
 Frequencies --  1047.0295              1064.1436              1078.4809
 Red. masses --     2.0143                 2.2649                 2.0344
 Frc consts  --     1.3011                 1.5111                 1.3941
 IR Inten    --     1.5656                14.2102                 4.1114

                    52                     53                     54
                     A                      A                      A
 Frequencies --  1083.8630              1093.4158              1103.7381
 Red. masses --     1.6335                 1.6758                 1.5901
 Frc consts  --     1.1306                 1.1805                 1.1413
 IR Inten    --     7.3055                 0.2518                 0.7900

                    55                     56                     57
                     A                      A                      A
 Frequencies --  1125.2453              1132.7784              1159.6429
 Red. masses --     1.7461                 1.2274                 1.2827
 Frc consts  --     1.3026                 0.9280                 1.0163
 IR Inten    --     3.5979                 0.4859                 1.8947

                    58                     59                     60
                     A                      A                      A
 Frequencies --  1167.6483              1174.2608              1183.7371
 Red. masses --     2.0975                 1.7472                 1.4526
 Frc consts  --     1.6849                 1.4195                 1.1993
 IR Inten    --     2.5354                66.6888                33.7072

                    61                     62                     63
                     A                      A                      A
 Frequencies --  1184.6218              1206.2037              1240.0388
 Red. masses --     1.5824                 1.2506                 1.4972
 Frc consts  --     1.3083                 1.0721                 1.3565
 IR Inten    --    27.1700                 5.8686                11.2859

                    64                     65                     66
                     A                      A                      A
 Frequencies --  1260.5861              1269.1850              1283.5077
 Red. masses --     1.5042                 3.1076                 1.6479
 Frc consts  --     1.4083                 2.9494                 1.5995
 IR Inten    --     2.5125                52.8130                32.4858

                    67                     68                     69
                     A                      A                      A
 Frequencies --  1303.7421              1307.5924              1314.5735
 Red. masses --     1.3218                 1.2878                 1.2839
 Frc consts  --     1.3237                 1.2973                 1.3072
 IR Inten    --    15.3075                20.6985                13.2757

                    70                     71                     72
                     A                      A                      A
 Frequencies --  1331.7417              1348.4896              1358.0876
 Red. masses --     1.2385                 1.3521                 1.3126
 Frc consts  --     1.2942                 1.4487                 1.4264
 IR Inten    --    14.8590                74.8625                71.6772

                    73                     74                     75
                     A                      A                      A
 Frequencies --  1367.6890              1387.3399              1391.9083
 Red. masses --     1.2645                 1.3800                 1.3534
 Frc consts  --     1.3936                 1.5649                 1.5449
 IR Inten    --     0.4317                 1.1569                 5.2107

                    76                     77                     78
                     A                      A                      A
 Frequencies --  1405.2897              1406.2226              1420.5636
 Red. masses --     1.4433                 1.4588                 1.3380
 Frc consts  --     1.6793                 1.6997                 1.5909
 IR Inten    --    10.1652                17.7654                54.2393

                    79                     80                     81
                     A                      A                      A
 Frequencies --  1424.2909              1457.3340              1461.7044
 Red. masses --     1.4779                 1.3113                 1.1654
 Frc consts  --     1.7664                 1.6409                 1.4671
 IR Inten    --    85.2472               290.3868                27.4386

                    82                     83                     84
                     A                      A                      A
 Frequencies --  1472.5294              1478.6206              1501.0991
 Red. masses --     1.1647                 1.9012                 1.1637
 Frc consts  --     1.4880                 2.4490                 1.5449
 IR Inten    --    24.0905                14.0024                13.4345

                    85                     86                     87
                     A                      A                      A
 Frequencies --  1505.5161              1509.2863              1511.4978
 Red. masses --     1.0769                 1.0805                 1.0847
 Frc consts  --     1.4381                 1.4502                 1.4601
 IR Inten    --     6.2977                16.3370                52.2552

                    88                     89                     90
                     A                      A                      A
 Frequencies --  1516.1467              1517.4309              1520.1578
 Red. masses --     1.0912                 1.0902                 1.1146
 Frc consts  --     1.4779                 1.4790                 1.5176
 IR Inten    --     3.8397                 4.7025                12.4349

                    91                     92                     93
                     A                      A                      A
 Frequencies --  1523.2067              1523.7335              1525.1519
 Red. masses --     1.0836                 1.0418                 1.0809
 Frc consts  --     1.4813                 1.4251                 1.4813
 IR Inten    --    16.1868                12.0602                14.4591

                    94                     95                     96
                     A                      A                      A
 Frequencies --  1531.3289              1536.3358              1564.6143
 Red. masses --     1.0589                 1.0960                 1.3753
 Frc consts  --     1.4630                 1.5241                 1.9836
 IR Inten    --    13.1233                 1.9614                41.0589

                    97                     98                     99
                     A                      A                      A
 Frequencies --  1606.3074              1686.9237              1733.1690
 Red. masses --     1.9338                 1.1002                 5.8988
 Frc consts  --     2.9397                 1.8446                10.4398
 IR Inten    --   165.4076                87.0132               278.9555

                   100                    101                    102
                     A                      A                      A
 Frequencies --  1792.2532              3007.9054              3024.7250
 Red. masses --     6.9475                 1.0818                 1.0702
 Frc consts  --    13.1486                 5.7669                 5.7691
 IR Inten    --   214.7159                16.5577                23.9138

                   103                    104                    105
                     A                      A                      A
 Frequencies --  3032.0439              3032.8742              3036.7961
 Red. masses --     1.0699                 1.0680                 1.0608
 Frc consts  --     5.7950                 5.7878                 5.7640
 IR Inten    --    22.3732                40.1564                19.2660

                   106                    107                    108
                     A                      A                      A
 Frequencies --  3042.1633              3063.0404              3067.7506
 Red. masses --     1.0641                 1.0383                 1.0386
 Frc consts  --     5.8025                 5.7397                 5.7589
 IR Inten    --    37.4274                10.9505                37.9561

                   109                    110                    111
                     A                      A                      A
 Frequencies --  3079.0805              3079.6630              3088.6967
 Red. masses --     1.1020                 1.0346                 1.0943
 Frc consts  --     6.1556                 5.7815                 6.1508
 IR Inten    --    29.1625                26.0220                18.4552

                   112                    113                    114
                     A                      A                      A
 Frequencies --  3095.2451              3096.6544              3100.3086
 Red. masses --     1.0958                 1.0945                 1.1004
 Frc consts  --     6.1852                 6.1835                 6.2318
 IR Inten    --    25.5549                33.1220                58.3578

                   115                    116                    117
                     A                      A                      A
 Frequencies --  3105.5259              3117.8261              3119.6360
 Red. masses --     1.0621                 1.0701                 1.1046
 Frc consts  --     6.0350                 6.1288                 6.3336
 IR Inten    --    95.8401               236.7476                43.0454

                   118                    119                    120
                     A                      A                      A
 Frequencies --  3127.1851              3127.3525              3146.8752
 Red. masses --     1.0971                 1.0954                 1.1074
 Frc consts  --     6.3211                 6.3123                 6.4613
 IR Inten    --    22.8340                 4.5189                 8.9579

                   121                    122                    123
                     A                      A                      A
 Frequencies --  3167.9914              3199.6025              3203.1204
 Red. masses --     1.1083                 1.1025                 1.0961
 Frc consts  --     6.5535                 6.6499                 6.6258
 IR Inten    --     0.8679                 0.0324                14.5320

                   124                    125                    126
                     A                      A                      A
 Frequencies --  3211.9686              3274.1325              3604.8209
 Red. masses --     1.0996                 1.0759                 1.0780
 Frc consts  --     6.6841                 6.7955                 8.2537
 IR Inten    --     0.5275               194.9147                43.2722

 - Thermochemistry -
 -------------------
 Temperature   298.150 Kelvin.  Pressure   1.00000 Atm.
 Atom     1 has atomic number  6 and mass  12.00000

 Molecular mass:   256.20250 amu.
 Principal axes and moments of inertia in atomic units:
                           1         2         3
     Eigenvalues --  3703.162397582.480539903.28110
           X            0.99996  -0.00777   0.00360
           Y            0.00781   0.99990  -0.01159
           Z           -0.00351   0.01162   0.99993
 This molecule is an asymmetric top.
 Rotational symmetry number  1.
 Warning -- assumption of classical behavior for rotation
           may cause significant error
 Rotational temperatures (Kelvin)      0.02339     0.01142     0.00875
 Rotational constants (GHZ):           0.48735     0.23801     0.18224
 Zero-point vibrational energy    1049937.4 (Joules/Mol)
                                  250.94105 (Kcal/Mol)
 Warning -- explicit consideration of  30 degrees of freedom as
           vibrations may cause significant error
 Vibrational temperatures:     34.96    61.49    79.01    81.93    89.55
          (Kelvin)             97.71   121.11   150.09   166.56   189.80
                              206.39   235.17   266.02   279.07   327.03
                              342.02   364.96   383.41   400.89   472.26
                              498.67   583.45   597.41   631.86   644.23
                              673.88   692.40   737.34   768.85   849.63
                              903.75   910.27  1013.85  1070.87  1109.47
                             1154.88  1186.70  1224.18  1272.70  1294.43
                             1310.63  1331.73  1343.39  1363.15  1394.36
                             1450.17  1491.64  1501.56  1506.44  1531.06
                             1551.69  1559.44  1573.18  1588.03  1618.98
                             1629.81  1668.47  1679.98  1689.50  1703.13
                             1704.40  1735.46  1784.14  1813.70  1826.07
                             1846.68  1875.79  1881.33  1891.38  1916.08
                             1940.17  1953.98  1967.80  1996.07  2002.64
                             2021.90  2023.24  2043.87  2049.23  2096.78
                             2103.06  2118.64  2127.40  2159.74  2166.10
                             2171.52  2174.71  2181.39  2183.24  2187.17
                             2191.55  2192.31  2194.35  2203.24  2210.44
                             2251.13  2311.12  2427.10  2493.64  2578.65
                             4327.70  4351.90  4362.43  4363.62  4369.27
                             4376.99  4407.03  4413.80  4430.10  4430.94
                             4443.94  4453.36  4455.39  4460.65  4468.15
                             4485.85  4488.45  4499.32  4499.56  4527.65
                             4558.03  4603.51  4608.57  4621.30  4710.74
                             5186.53

 Zero-point correction=                           0.399900 (Hartree/Particle)
 Thermal correction to Energy=                    0.420211
 Thermal correction to Enthalpy=                  0.421155
 Thermal correction to Gibbs Free Energy=         0.349411
 Sum of electronic and zero-point Energies=           -825.165444
 Sum of electronic and thermal Energies=              -825.145132
 Sum of electronic and thermal Enthalpies=            -825.144188
 Sum of electronic and thermal Free Energies=         -825.215933

                     E (Thermal)             CV                S
                      KCal/Mol        Cal/Mol-Kelvin    Cal/Mol-Kelvin
 Total                  263.687             74.366            151.000
 Electronic               0.000              0.000              0.000
 Translational            0.889              2.981             42.522
 Rotational               0.889              2.981             33.986
 Vibrational            261.909             68.405             74.492
 Vibration     1          0.593              1.985              6.248
 Vibration     2          0.595              1.980              5.128
 Vibration     3          0.596              1.976              4.632
 Vibration     4          0.596              1.975              4.560
 Vibration     5          0.597              1.972              4.385
 Vibration     6          0.598              1.970              4.213
 Vibration     7          0.601              1.960              3.791
 Vibration     8          0.605              1.946              3.372
 Vibration     9          0.608              1.936              3.170
 Vibration    10          0.612              1.921              2.918
 Vibration    11          0.616              1.910              2.757
 Vibration    12          0.623              1.887              2.509
 Vibration    13          0.631              1.860              2.278
 Vibration    14          0.635              1.848              2.190
 Vibration    15          0.651              1.799              1.900
 Vibration    16          0.656              1.783              1.820
 Vibration    17          0.665              1.757              1.705
 Vibration    18          0.672              1.735              1.619
 Vibration    19          0.679              1.713              1.542
 Vibration    20          0.711              1.619              1.269
 Vibration    21          0.725              1.582              1.182
 Vibration    22          0.770              1.458              0.943
 Vibration    23          0.779              1.437              0.908
 Vibration    24          0.799              1.385              0.829
 Vibration    25          0.807              1.366              0.803
 Vibration    26          0.826              1.320              0.742
 Vibration    27          0.838              1.292              0.707
 Vibration    28          0.868              1.222              0.628
 Vibration    29          0.889              1.174              0.578
 Vibration    30          0.948              1.052              0.466

 Optimization completed.
    -- Stationary point found.
 Normal termination of Gaussian 09 at Sat Feb 17 00:39:49 2018.
