 Gaussian 09, Revision C.01,
 Gaussian 09:  AM64L-G09RevC.01 23-Sep-2011

 ----------------------------------------------------------------------
 #HF/6-31G* Geom=AllCheck Guess=Read Pop=(MK,ReadRadii) Integral=(Grid=
 UltraFine) iop(6/33=2)
 ----------------------------------------------------------------------

 Structure from the checkpoint file:  frag40-conf0.chk
 -----------------------------
 Optimization for frag40-conf0
 -----------------------------
 Charge =  1 Multiplicity = 1

                         Standard orientation:
 ---------------------------------------------------------------------
 Center     Atomic      Atomic             Coordinates (Angstroms)
 Number     Number       Type             X           Y           Z
 ---------------------------------------------------------------------
      1          6           0       -3.475280    0.059311    0.116053
      2          6           0        0.929314   -1.541056   -0.464963
      3          6           0        3.184621    2.836781   -0.225182
      4          6           0        2.933411    2.285367    1.184684
      5          6           0        1.891366    2.857898   -1.051196
      6          6           0        2.267611    0.899817    1.141931
      7          6           0        1.228183    1.470682   -1.101434
      8          6           0        0.959481    0.934284    0.321315
      9          6           0       -5.913677    0.403523    0.256337
     10          6           0        2.489543   -3.368843   -0.752730
     11          6           0        2.119799   -2.508234    1.526990
     12          6           0       -2.085054    0.735038    0.019979
     13          6           0        0.227281   -0.433168    0.367562
     14          7           0       -4.535076    0.877259    0.116657
     15          7           0        1.813824   -2.384609    0.102982
     16          7           0       -1.134343   -0.365732   -0.305603
     17          8           0       -3.510171   -1.168931    0.211097
     18          8           0        0.627782   -1.569323   -1.666748
     19          1           0        3.610555    3.844481   -0.165427
     20          1           0        3.931467    2.211449   -0.734609
     21          1           0        3.872798    2.218479    1.744787
     22          1           0        2.287734    2.979203    1.741919
     23          1           0        1.189744    3.583193   -0.613470
     24          1           0        2.093838    3.198750   -2.072602
     25          1           0        2.962469    0.180012    0.688914
     26          1           0        2.065245    0.554536    2.164178
     27          1           0        0.298484    1.533002   -1.684466
     28          1           0        1.876180    0.771204   -1.642466
     29          1           0        0.296962    1.650720    0.831199
     30          1           0       -6.500511    0.690770   -0.620565
     31          1           0       -6.370039    0.828001    1.155125
     32          1           0       -5.891503   -0.682629    0.338165
     33          1           0        3.569757   -3.312217   -0.585413
     34          1           0        2.262437   -3.153974   -1.794638
     35          1           0        2.144993   -4.378642   -0.503332
     36          1           0        1.886607   -3.525195    1.861798
     37          1           0        1.549076   -1.805919    2.130467
     38          1           0        3.185270   -2.322948    1.699780
     39          1           0       -1.821430    1.165127    0.989464
     40          1           0       -2.031210    1.517383   -0.739052
     41          1           0        0.032690   -0.717191    1.403546
     42          1           0       -4.384563    1.873062    0.015414
     43          1           0       -1.696342   -1.221188   -0.082254
     44          1           0       -0.912031   -0.450260   -1.315588
 ---------------------------------------------------------------------

 SCF Done:  E(RHF) =  -820.321292234     A.U. after   13 cycles

 The electronic state is 1-A.
 Alpha  occ. eigenvalues --  -20.68406 -20.66701 -15.82944 -15.73977 -15.73461
 Alpha  occ. eigenvalues --  -11.51572 -11.50256 -11.46043 -11.45618 -11.39202
 Alpha  occ. eigenvalues --  -11.38444 -11.37824 -11.36791 -11.35003 -11.34771
 Alpha  occ. eigenvalues --  -11.32943 -11.32914 -11.32063  -1.54143  -1.52487
 Alpha  occ. eigenvalues --   -1.45035  -1.37890  -1.37750  -1.25365  -1.19136
 Alpha  occ. eigenvalues --   -1.14762  -1.12267  -1.09744  -1.09394  -1.06807
 Alpha  occ. eigenvalues --   -1.04124  -0.95855  -0.94813  -0.93526  -0.92456
 Alpha  occ. eigenvalues --   -0.90662  -0.86896  -0.85821  -0.82809  -0.81580
 Alpha  occ. eigenvalues --   -0.80555  -0.78452  -0.78233  -0.76334  -0.76103
 Alpha  occ. eigenvalues --   -0.74803  -0.73811  -0.72444  -0.71532  -0.71100
 Alpha  occ. eigenvalues --   -0.70635  -0.69688  -0.67838  -0.67401  -0.66858
 Alpha  occ. eigenvalues --   -0.66355  -0.66158  -0.65279  -0.64509  -0.63835
 Alpha  occ. eigenvalues --   -0.62916  -0.61326  -0.60098  -0.58418  -0.56864
 Alpha  occ. eigenvalues --   -0.56102  -0.55099  -0.54694  -0.53181  -0.50225
 Alpha virt. eigenvalues --    0.03208   0.03689   0.05892   0.08512   0.09246
 Alpha virt. eigenvalues --    0.11085   0.11766   0.13164   0.13735   0.14661
 Alpha virt. eigenvalues --    0.15569   0.16307   0.17290   0.18155   0.18516

 Mulliken atomic charges:
              1
     1  C    0.795810
     2  C    0.829033
     3  C   -0.320722
     4  C   -0.320063
     5  C   -0.320783
     6  C   -0.329132
     7  C   -0.329600
     8  C   -0.187579
     9  C   -0.308418
    10  C   -0.315364
    11  C   -0.299623
    12  C   -0.243109
    13  C   -0.091887
    14  N   -0.790216
    15  N   -0.672292
    16  N   -0.845175
    17  O   -0.639112
    18  O   -0.662056
    19  H    0.194692
    20  H    0.170359
    21  H    0.195408
    22  H    0.166030
    23  H    0.157415
    24  H    0.197286
    25  H    0.181313
    26  H    0.173419
    27  H    0.147387
    28  H    0.206451
    29  H    0.178721
    30  H    0.208519
    31  H    0.206780
    32  H    0.246596
    33  H    0.196319
    34  H    0.251955
    35  H    0.198799
    36  H    0.213317
    37  H    0.179711
    38  H    0.209636
    39  H    0.262627
    40  H    0.257440
    41  H    0.246158
    42  H    0.408129
    43  H    0.500326
    44  H    0.495491
 Sum of Mulliken atomic charges =   1.00000

 Dipole moment (field-independent basis, Debye):
    X=             -3.1407    Y=              2.1942    Z=              2.7089  Tot=              4.6922
 Quadrupole moment (field-independent basis, Debye-Ang):
   XX=            -59.8751   YY=            -90.8295   ZZ=           -108.3323
   XY=            -21.6278   XZ=              3.5239   YZ=             -5.0373

 Normal termination of Gaussian 09 at Sat Feb 17 21:06:51 2018.
