 Gaussian 09, Revision C.01,
 Gaussian 09:  AM64L-G09RevC.01 23-Sep-2011

 ---------------------------------------------------------
 #B3LYP/6-31G* Integral=(Grid=UltraFine) freq Opt pop=none
 ---------------------------------------------------------

 99/9=1/99;
 ----------------------------
 Optimization for frag1-conf0
 ----------------------------
 Charge =  1 Multiplicity = 1

 SCF Done:  E(RB3LYP) =  -531.712476268     A.U. after   14 cycles
 SCF Done:  E(RB3LYP) =  -531.715881439     A.U. after   14 cycles
 SCF Done:  E(RB3LYP) =  -531.716479350     A.U. after   13 cycles
 SCF Done:  E(RB3LYP) =  -531.716718056     A.U. after   12 cycles
 SCF Done:  E(RB3LYP) =  -531.716790929     A.U. after   12 cycles
 SCF Done:  E(RB3LYP) =  -531.716873622     A.U. after   11 cycles
 SCF Done:  E(RB3LYP) =  -531.716918682     A.U. after   10 cycles
 SCF Done:  E(RB3LYP) =  -531.716976792     A.U. after   10 cycles
 SCF Done:  E(RB3LYP) =  -531.717018721     A.U. after   10 cycles
 SCF Done:  E(RB3LYP) =  -531.717038591     A.U. after   10 cycles
 SCF Done:  E(RB3LYP) =  -531.717388109     A.U. after   12 cycles
 SCF Done:  E(RB3LYP) =  -531.717393702     A.U. after    9 cycles
 SCF Done:  E(RB3LYP) =  -531.717404034     A.U. after    9 cycles
 SCF Done:  E(RB3LYP) =  -531.717427792     A.U. after   10 cycles
 SCF Done:  E(RB3LYP) =  -531.717436415     A.U. after   10 cycles
 SCF Done:  E(RB3LYP) =  -531.717442510     A.U. after    9 cycles
 SCF Done:  E(RB3LYP) =  -531.717445174     A.U. after    9 cycles
 SCF Done:  E(RB3LYP) =  -531.717446103     A.U. after    8 cycles
 SCF Done:  E(RB3LYP) =  -531.717446278     A.U. after    8 cycles
 Optimization completed.
    -- Stationary point found.
 Normal termination of Gaussian 09 at Sat Feb 17 21:33:34 2018.

 --------------------------------------------------------------------
 #N Geom=AllCheck Guess=TCheck SCRF=Check GenChk RB3LYP/6-31G(d) Freq
 --------------------------------------------------------------------

 Structure from the checkpoint file:  frag1-conf0.chk
 ----------------------------
 Optimization for frag1-conf0
 ----------------------------
 Charge =  1 Multiplicity = 1

                         Standard orientation:
 ---------------------------------------------------------------------
 Center     Atomic      Atomic             Coordinates (Angstroms)
 Number     Number       Type             X           Y           Z
 ---------------------------------------------------------------------
      1          6           0        3.274107   -0.318547    0.197687
      2          6           0       -3.395694   -0.259400    0.006761
      3          6           0        4.700523   -0.669932   -0.177143
      4          6           0        0.269742    0.247301   -0.495203
      5          6           0        1.396389    1.223847   -0.109313
      6          6           0       -1.074685    0.665599    0.101313
      7          7           0       -4.224225   -1.233909   -0.405664
      8          7           0        2.702294    0.719854   -0.496372
      9          7           0       -2.078972   -0.387123   -0.148784
     10          7           0       -3.912650    0.849280    0.554131
     11          8           0        2.648464   -0.911415    1.070871
     12          1           0        5.361896   -0.392930    0.650825
     13          1           0        4.776579   -1.752763   -0.305722
     14          1           0        5.050242   -0.173130   -1.087038
     15          1           0        0.552033   -0.732485   -0.095022
     16          1           0        0.190370    0.171123   -1.585866
     17          1           0        1.249454    2.197909   -0.586333
     18          1           0        1.383131    1.370852    0.978035
     19          1           0       -1.436425    1.596218   -0.351725
     20          1           0       -0.969916    0.818569    1.183900
     21          1           0       -3.893328   -1.995829   -0.980837
     22          1           0       -5.182903   -1.277773   -0.089711
     23          1           0        3.253552    1.242179   -1.161448
     24          1           0       -1.718945   -1.312960   -0.348163
     25          1           0       -4.901309    1.050203    0.500299
     26          1           0       -3.329565    1.512203    1.044055
 ---------------------------------------------------------------------

 SCF Done:  E(RB3LYP) =  -531.717446278     A.U. after    1 cycles

 Isotropic polarizability for W=    0.000000       91.22 Bohr**3.
 End of Minotr Frequency-dependent properties file   721 does not exist.

                     1                      2                      3
                     A                      A                      A
 Frequencies --    26.9453                38.1332                52.7340
 Red. masses --     3.6770                 3.4752                 1.3318
 Frc consts  --     0.0016                 0.0030                 0.0022
 IR Inten    --     1.7003                 5.1809                 6.9010

                     4                      5                      6
                     A                      A                      A
 Frequencies --    62.3295                79.9260               121.0586
 Red. masses --     2.6384                 3.1607                 2.8510
 Frc consts  --     0.0060                 0.0119                 0.0246
 IR Inten    --     4.2762                 7.7769                 1.5502

                     7                      8                      9
                     A                      A                      A
 Frequencies --   140.8008               176.4156               234.6133
 Red. masses --     2.4918                 2.7196                 1.5348
 Frc consts  --     0.0291                 0.0499                 0.0498
 IR Inten    --     2.1592                 0.9299                34.2465

                    10                     11                     12
                     A                      A                      A
 Frequencies --   248.8549               271.3985               291.1008
 Red. masses --     2.6566                 3.0657                 3.5426
 Frc consts  --     0.0969                 0.1330                 0.1769
 IR Inten    --    47.0581                 1.2184                 6.8499

                    13                     14                     15
                     A                      A                      A
 Frequencies --   325.4878               356.1264               378.9944
 Red. masses --     1.2126                 1.1468                 1.2605
 Frc consts  --     0.0757                 0.0857                 0.1067
 IR Inten    --   138.5328               294.1187                71.6129

                    16                     17                     18
                     A                      A                      A
 Frequencies --   408.0612               478.8470               502.8754
 Red. masses --     2.4726                 3.4275                 1.8498
 Frc consts  --     0.2426                 0.4630                 0.2756
 IR Inten    --     9.9512                 9.8255                43.1261

                    19                     20                     21
                     A                      A                      A
 Frequencies --   538.7037               563.0664               588.4152
 Red. masses --     1.1100                 1.2793                 3.0091
 Frc consts  --     0.1898                 0.2390                 0.6138
 IR Inten    --    51.6545                66.4015                 2.4969

                    22                     23                     24
                     A                      A                      A
 Frequencies --   634.3825               664.4272               702.4563
 Red. masses --     2.4835                 3.6386                 5.9791
 Frc consts  --     0.5889                 0.9464                 1.7383
 IR Inten    --     0.3788                 6.1565                 4.4798

                    25                     26                     27
                     A                      A                      A
 Frequencies --   761.8903               855.9500               936.2761
 Red. masses --     1.1551                 1.6768                 1.9927
 Frc consts  --     0.3950                 0.7238                 1.0292
 IR Inten    --     8.2711                 1.1757                 1.9519

                    28                     29                     30
                     A                      A                      A
 Frequencies --   973.6054              1011.2613              1044.5432
 Red. masses --     3.5285                 1.7964                 3.0555
 Frc consts  --     1.9706                 1.0824                 1.9642
 IR Inten    --     0.6129                11.6074                 4.4743

                    31                     32                     33
                     A                      A                      A
 Frequencies --  1068.7867              1070.8471              1075.3267
 Red. masses --     1.7857                 1.6694                 2.3143
 Frc consts  --     1.2019                 1.1279                 1.5767
 IR Inten    --    11.8560                 3.1937                 0.9514

                    34                     35                     36
                     A                      A                      A
 Frequencies --  1106.0417              1124.0921              1164.3063
 Red. masses --     2.5749                 2.6909                 2.2617
 Frc consts  --     1.8559                 2.0033                 1.8064
 IR Inten    --     4.3942                 5.7402                14.6515

                    37                     38                     39
                     A                      A                      A
 Frequencies --  1172.9463              1252.0190              1284.7242
 Red. masses --     1.9044                 1.2558                 1.8956
 Frc consts  --     1.5437                 1.1598                 1.8434
 IR Inten    --     1.7448                21.8016               103.3029

                    40                     41                     42
                     A                      A                      A
 Frequencies --  1309.8234              1344.7567              1367.5812
 Red. masses --     1.2817                 1.1526                 1.0967
 Frc consts  --     1.2956                 1.2281                 1.2085
 IR Inten    --     3.8736                 3.8863                16.6405

                    43                     44                     45
                     A                      A                      A
 Frequencies --  1398.2121              1429.2360              1436.9414
 Red. masses --     1.2820                 1.2489                 1.3636
 Frc consts  --     1.4767                 1.5031                 1.6589
 IR Inten    --    13.9967                39.8800                58.7432

                    46                     47                     48
                     A                      A                      A
 Frequencies --  1458.0335              1496.9395              1503.6514
 Red. masses --     1.4578                 1.0606                 1.1034
 Frc consts  --     1.8259                 1.4003                 1.4699
 IR Inten    --     6.6604                17.3218                 7.0035

                    49                     50                     51
                     A                      A                      A
 Frequencies --  1513.7935              1524.7578              1543.5795
 Red. masses --     1.0714                 1.0827                 1.1042
 Frc consts  --     1.4465                 1.4830                 1.5500
 IR Inten    --    24.4155                14.8563                 8.3734

                    52                     53                     54
                     A                      A                      A
 Frequencies --  1547.8183              1608.9702              1669.8572
 Red. masses --     1.8387                 1.4586                 1.7072
 Frc consts  --     2.5954                 2.2248                 2.8047
 IR Inten    --   198.1258                 2.3298               118.3809

                    55                     56                     57
                     A                      A                      A
 Frequencies --  1717.9512              1719.0971              1774.7121
 Red. masses --     2.0566                 2.3370                 8.8086
 Frc consts  --     3.5762                 4.0691                16.3461
 IR Inten    --   478.9465               419.9342               181.3679

                    58                     59                     60
                     A                      A                      A
 Frequencies --  3039.3298              3051.2337              3068.2892
 Red. masses --     1.0596                 1.0623                 1.0592
 Frc consts  --     5.7671                 5.8272                 5.8750
 IR Inten    --     6.2135                18.3908                25.7163

                    61                     62                     63
                     A                      A                      A
 Frequencies --  3068.8232              3088.7342              3106.2313
 Red. masses --     1.0363                 1.1051                 1.1029
 Frc consts  --     5.7504                 6.2117                 6.2697
 IR Inten    --     4.2525                 9.6192                 3.1381

                    64                     65                     66
                     A                      A                      A
 Frequencies --  3128.4886              3138.7388              3155.8528
 Red. masses --     1.1072                 1.1021                 1.1028
 Frc consts  --     6.3848                 6.3972                 6.4710
 IR Inten    --    21.9718                 8.8181                 7.2655

                    67                     68                     69
                     A                      A                      A
 Frequencies --  3595.0871              3601.2136              3612.5268
 Red. masses --     1.0710                 1.0497                 1.0519
 Frc consts  --     8.1560                 8.0204                 8.0882
 IR Inten    --    96.2906               204.3536                54.4177

                    70                     71                     72
                     A                      A                      A
 Frequencies --  3637.9699              3710.0266              3716.2508
 Red. masses --     1.0789                 1.1062                 1.1062
 Frc consts  --     8.4132                 8.9707                 9.0012
 IR Inten    --    32.1669                91.4683               113.4072

 - Thermochemistry -
 -------------------
 Temperature   298.150 Kelvin.  Pressure   1.00000 Atm.
 Atom     1 has atomic number  6 and mass  12.00000

 Molecular mass:   159.12459 amu.
 Principal axes and moments of inertia in atomic units:
                           1         2         3
     Eigenvalues --   554.527605459.605585704.32535
           X            0.99998   0.00058  -0.00593
           Y           -0.00025   0.99842   0.05620
           Z            0.00595  -0.05620   0.99840
 This molecule is an asymmetric top.
 Rotational symmetry number  1.
 Warning -- assumption of classical behavior for rotation
           may cause significant error
 Rotational temperatures (Kelvin)      0.15619     0.01586     0.01518
 Rotational constants (GHZ):           3.25456     0.33056     0.31638
 Zero-point vibrational energy     603356.2 (Joules/Mol)
                                  144.20559 (Kcal/Mol)
 Warning -- explicit consideration of  21 degrees of freedom as
           vibrations may cause significant error
 Vibrational temperatures:     38.77    54.87    75.87    89.68   115.00
          (Kelvin)            174.18   202.58   253.82   337.56   358.05
                              390.48   418.83   468.30   512.39   545.29
                              587.11   688.95   723.52   775.07   810.13
                              846.60   912.73   955.96  1010.68  1096.19
                             1231.52  1347.09  1400.80  1454.98  1502.86
                             1537.74  1540.71  1547.15  1591.35  1617.32
                             1675.17  1687.61  1801.37  1848.43  1884.54
                             1934.80  1967.64  2011.71  2056.35  2067.44
                             2097.78  2153.76  2163.42  2178.01  2193.78
                             2220.86  2226.96  2314.95  2402.55  2471.75
                             2473.39  2553.41  4372.91  4390.04  4414.58
                             4415.35  4443.99  4469.17  4501.19  4515.94
                             4540.56  5172.52  5181.34  5197.61  5234.22
                             5337.89  5346.85

 Zero-point correction=                           0.229806 (Hartree/Particle)
 Thermal correction to Energy=                    0.243993
 Thermal correction to Enthalpy=                  0.244937
 Thermal correction to Gibbs Free Energy=         0.187226
 Sum of electronic and zero-point Energies=           -531.487640
 Sum of electronic and thermal Energies=              -531.473453
 Sum of electronic and thermal Enthalpies=            -531.472509
 Sum of electronic and thermal Free Energies=         -531.530220

                     E (Thermal)             CV                S
                      KCal/Mol        Cal/Mol-Kelvin    Cal/Mol-Kelvin
 Total                  153.108             49.678            121.463
 Electronic               0.000              0.000              0.000
 Translational            0.889              2.981             41.103
 Rotational               0.889              2.981             31.224
 Vibrational            151.330             43.716             49.136
 Vibration     1          0.593              1.984              6.043
 Vibration     2          0.594              1.982              5.354
 Vibration     3          0.596              1.977              4.712
 Vibration     4          0.597              1.972              4.382
 Vibration     5          0.600              1.963              3.893
 Vibration     6          0.609              1.932              3.083
 Vibration     7          0.615              1.912              2.793
 Vibration     8          0.628              1.871              2.366
 Vibration     9          0.654              1.788              1.843
 Vibration    10          0.662              1.765              1.739
 Vibration    11          0.675              1.726              1.587
 Vibration    12          0.687              1.690              1.468
 Vibration    13          0.710              1.625              1.282
 Vibration    14          0.732              1.563              1.139
 Vibration    15          0.749              1.515              1.043
 Vibration    16          0.773              1.453              0.933
 Vibration    17          0.835              1.297              0.713
 Vibration    18          0.858              1.244              0.651
 Vibration    19          0.894              1.164              0.568
 Vibration    20          0.919              1.111              0.518
 Vibration    21          0.946              1.056              0.470

 Normal termination of Gaussian 09 at Sat Feb 17 21:44:59 2018.
