 Gaussian 09, Revision C.01,
 Gaussian 09:  AM64L-G09RevC.01 23-Sep-2011

 ----------------------------------------------------------------------
 #HF/6-31G* Geom=AllCheck Guess=Read Pop=(MK,ReadRadii) Integral=(Grid=
 UltraFine) iop(6/33=2)
 ----------------------------------------------------------------------

 Structure from the checkpoint file:  frag1-conf0.chk
 ----------------------------
 Optimization for frag1-conf0
 ----------------------------
 Charge =  1 Multiplicity = 1

                         Standard orientation:
 ---------------------------------------------------------------------
 Center     Atomic      Atomic             Coordinates (Angstroms)
 Number     Number       Type             X           Y           Z
 ---------------------------------------------------------------------
      1          6           0        3.274107   -0.318547    0.197687
      2          6           0       -3.395694   -0.259400    0.006761
      3          6           0        4.700523   -0.669932   -0.177143
      4          6           0        0.269742    0.247301   -0.495203
      5          6           0        1.396389    1.223847   -0.109313
      6          6           0       -1.074685    0.665599    0.101313
      7          7           0       -4.224225   -1.233909   -0.405664
      8          7           0        2.702294    0.719854   -0.496372
      9          7           0       -2.078972   -0.387123   -0.148784
     10          7           0       -3.912650    0.849280    0.554131
     11          8           0        2.648464   -0.911415    1.070871
     12          1           0        5.361896   -0.392930    0.650825
     13          1           0        4.776579   -1.752763   -0.305722
     14          1           0        5.050242   -0.173130   -1.087038
     15          1           0        0.552033   -0.732485   -0.095022
     16          1           0        0.190370    0.171123   -1.585866
     17          1           0        1.249454    2.197909   -0.586333
     18          1           0        1.383131    1.370852    0.978035
     19          1           0       -1.436425    1.596218   -0.351725
     20          1           0       -0.969916    0.818569    1.183900
     21          1           0       -3.893328   -1.995829   -0.980837
     22          1           0       -5.182903   -1.277773   -0.089711
     23          1           0        3.253552    1.242179   -1.161448
     24          1           0       -1.718945   -1.312960   -0.348163
     25          1           0       -4.901309    1.050203    0.500299
     26          1           0       -3.329565    1.512203    1.044055
 ---------------------------------------------------------------------

 SCF Done:  E(RHF) =  -528.441130110     A.U. after   13 cycles

 The electronic state is 1-A.
 Alpha  occ. eigenvalues --  -20.61248 -15.78745 -15.78465 -15.78304 -15.68486
 Alpha  occ. eigenvalues --  -11.59120 -11.44366 -11.42793 -11.38042 -11.35658
 Alpha  occ. eigenvalues --  -11.31735  -1.52775  -1.46518  -1.39251  -1.37925
 Alpha  occ. eigenvalues --   -1.32284  -1.19311  -1.10544  -1.06149  -1.02655
 Alpha  occ. eigenvalues --   -0.97788  -0.94886  -0.92489  -0.87787  -0.86175
 Alpha  occ. eigenvalues --   -0.85104  -0.81467  -0.80057  -0.76822  -0.75802
 Alpha  occ. eigenvalues --   -0.73728  -0.71289  -0.68448  -0.67598  -0.65370
 Alpha  occ. eigenvalues --   -0.64623  -0.63273  -0.62056  -0.61077  -0.58289
 Alpha  occ. eigenvalues --   -0.57568  -0.50688  -0.48480
 Alpha virt. eigenvalues --    0.01353   0.03152   0.07152   0.08438   0.09418
 Alpha virt. eigenvalues --    0.09926   0.11813   0.13050   0.14197   0.15772
 Alpha virt. eigenvalues --    0.18160   0.18726   0.20173   0.21326   0.22702

 Mulliken atomic charges:
              1
     1  C    0.754066
     2  C    1.053389
     3  C   -0.580727
     4  C   -0.365208
     5  C   -0.102913
     6  C   -0.134000
     7  N   -0.925137
     8  N   -0.808557
     9  N   -0.816645
    10  N   -0.924463
    11  O   -0.630289
    12  H    0.223986
    13  H    0.222332
    14  H    0.179827
    15  H    0.232918
    16  H    0.192460
    17  H    0.186938
    18  H    0.204802
    19  H    0.206592
    20  H    0.213530
    21  H    0.443357
    22  H    0.442204
    23  H    0.401154
    24  H    0.432685
    25  H    0.444082
    26  H    0.453616
 Sum of Mulliken atomic charges =   1.00000

 Dipole moment (field-independent basis, Debye):
    X=            -12.0936    Y=              1.3947    Z=             -2.4273  Tot=             12.4134
 Quadrupole moment (field-independent basis, Debye-Ang):
   XX=             15.9465   YY=            -53.8245   ZZ=            -66.7053
   XY=              9.7592   XZ=             -9.7220   YZ=              6.6285

 Normal termination of Gaussian 09 at Sun Feb 18 17:06:23 2018.
