 Gaussian 09, Revision C.01,
 Gaussian 09:  AM64L-G09RevC.01 23-Sep-2011

 ---------------------------------------------------------
 #B3LYP/6-31G* Integral=(Grid=UltraFine) freq Opt pop=none
 ---------------------------------------------------------

 99/9=1/99;
 -----------------------------
 Optimization for frag21-conf2
 -----------------------------
 Charge =  1 Multiplicity = 1

 SCF Done:  E(RB3LYP) =  -994.889427927     A.U. after   16 cycles
 SCF Done:  E(RB3LYP) =  -994.892664439     A.U. after   13 cycles
 SCF Done:  E(RB3LYP) =  -994.892214269     A.U. after   13 cycles
 SCF Done:  E(RB3LYP) =  -994.894037640     A.U. after   13 cycles
 SCF Done:  E(RB3LYP) =  -994.894611316     A.U. after   12 cycles
 SCF Done:  E(RB3LYP) =  -994.894764086     A.U. after   12 cycles
 SCF Done:  E(RB3LYP) =  -994.894976855     A.U. after   12 cycles
 SCF Done:  E(RB3LYP) =  -994.895154399     A.U. after   12 cycles
 SCF Done:  E(RB3LYP) =  -994.895651842     A.U. after   14 cycles
 SCF Done:  E(RB3LYP) =  -994.895953934     A.U. after   12 cycles
 SCF Done:  E(RB3LYP) =  -994.900388283     A.U. after   10 cycles
 SCF Done:  E(RB3LYP) =  -994.900396422     A.U. after   10 cycles
 SCF Done:  E(RB3LYP) =  -994.900409999     A.U. after   10 cycles
 SCF Done:  E(RB3LYP) =  -994.900425817     A.U. after   10 cycles
 SCF Done:  E(RB3LYP) =  -994.900445586     A.U. after   10 cycles
 SCF Done:  E(RB3LYP) =  -994.900459307     A.U. after   10 cycles
 SCF Done:  E(RB3LYP) =  -994.900460943     A.U. after   10 cycles
 SCF Done:  E(RB3LYP) =  -994.900461119     A.U. after    8 cycles
 SCF Done:  E(RB3LYP) =  -994.900461200     A.U. after    7 cycles
 Optimization completed.
    -- Stationary point found.
 Normal termination of Gaussian 09 at Fri Feb 16 20:07:33 2018.

 --------------------------------------------------------------------
 #N Geom=AllCheck Guess=TCheck SCRF=Check GenChk RB3LYP/6-31G(d) Freq
 --------------------------------------------------------------------

 Structure from the checkpoint file:  frag21-conf2.chk
 -----------------------------
 Optimization for frag21-conf2
 -----------------------------
 Charge =  1 Multiplicity = 1

                         Standard orientation:
 ---------------------------------------------------------------------
 Center     Atomic      Atomic             Coordinates (Angstroms)
 Number     Number       Type             X           Y           Z
 ---------------------------------------------------------------------
      1          6           0        2.359552    0.872253    0.647558
      2          6           0        0.902012   -0.557018   -0.631980
      3          6           0        1.390326    1.846927    0.568044
      4          6           0        2.110280   -0.361707    0.034806
      5          6           0       -0.050274    0.454374   -0.688118
      6          6           0       -2.623882   -0.744946    0.383270
      7          6           0       -3.542246   -1.838797    0.874065
      8          6           0       -0.795608    2.738598   -0.052299
      9          6           0       -1.347544    0.212831   -1.450642
     10          7           0        0.214491    1.649203   -0.084295
     11          7           0       -2.095770   -0.893373   -0.878977
     12          8           0       -2.330529    0.244007    1.049283
     13         17           0        3.283787   -1.618005    0.097523
     14          1           0        3.284388    1.068472    1.176528
     15          1           0        0.683747   -1.505474   -1.108559
     16          1           0        1.521928    2.817372    1.029370
     17          1           0       -3.256644   -2.108715    1.893963
     18          1           0       -4.565573   -1.449775    0.914118
     19          1           0       -3.528746   -2.732337    0.244247
     20          1           0       -0.981484    3.106442   -1.062910
     21          1           0       -1.703417    2.336144    0.400074
     22          1           0       -0.402548    3.551809    0.555616
     23          1           0       -1.957871    1.116948   -1.485983
     24          1           0       -1.087896   -0.050762   -2.480474
     25          1           0       -2.432780   -1.621997   -1.493458
 ---------------------------------------------------------------------

 SCF Done:  E(RB3LYP) =  -994.900461200     A.U. after    1 cycles

 Isotropic polarizability for W=    0.000000      117.82 Bohr**3.
 End of Minotr Frequency-dependent properties file   721 does not exist.

                     1                      2                      3
                     A                      A                      A
 Frequencies --    39.3492                54.5596                77.1017
 Red. masses --     3.5445                 1.2774                 3.9195
 Frc consts  --     0.0032                 0.0022                 0.0137
 IR Inten    --     2.0642                 3.8257                 3.0514

                     4                      5                      6
                     A                      A                      A
 Frequencies --    81.1962               132.5707               164.5818
 Red. masses --     4.2162                 3.9008                 4.3517
 Frc consts  --     0.0164                 0.0404                 0.0694
 IR Inten    --    13.5235                 2.3572                 1.7417

                     7                      8                      9
                     A                      A                      A
 Frequencies --   187.3383               237.0751               254.6925
 Red. masses --     7.0554                 1.1863                 2.9025
 Frc consts  --     0.1459                 0.0393                 0.1109
 IR Inten    --     9.2423                 2.1638                 6.1104

                    10                     11                     12
                     A                      A                      A
 Frequencies --   292.8061               318.9793               362.1379
 Red. masses --     4.3518                 4.1000                 2.3900
 Frc consts  --     0.2198                 0.2458                 0.1847
 IR Inten    --     4.9043                 3.5549                 6.0007

                    13                     14                     15
                     A                      A                      A
 Frequencies --   388.6391               428.6012               431.2321
 Red. masses --     8.6207                 1.2685                 2.7249
 Frc consts  --     0.7672                 0.1373                 0.2985
 IR Inten    --     7.2648                69.5484                13.4644

                    16                     17                     18
                     A                      A                      A
 Frequencies --   456.2336               494.8346               547.2784
 Red. masses --     2.9091                 3.2820                 4.5607
 Frc consts  --     0.3568                 0.4735                 0.8048
 IR Inten    --     8.4605                24.3923                 5.1294

                    19                     20                     21
                     A                      A                      A
 Frequencies --   597.2756               638.8432               670.8471
 Red. masses --     4.5550                 2.6626                 4.5579
 Frc consts  --     0.9574                 0.6402                 1.2085
 IR Inten    --     0.6728                 2.0859                11.9556

                    22                     23                     24
                     A                      A                      A
 Frequencies --   689.8041               726.3984               795.5651
 Red. masses --     5.5923                 4.2368                 4.5282
 Frc consts  --     1.5678                 1.3172                 1.6886
 IR Inten    --     0.5063                 3.1199                11.3091

                    25                     26                     27
                     A                      A                      A
 Frequencies --   844.1979               866.2503               909.5216
 Red. masses --     1.3244                 2.9638                 1.6150
 Frc consts  --     0.5561                 1.3103                 0.7871
 IR Inten    --    28.2302                 9.9495                16.5536

                    28                     29                     30
                     A                      A                      A
 Frequencies --   922.8762               978.1831              1005.0541
 Red. masses --     3.2822                 1.3335                 1.6189
 Frc consts  --     1.6470                 0.7518                 0.9635
 IR Inten    --    16.9843                 0.0169                 4.8300

                    31                     32                     33
                     A                      A                      A
 Frequencies --  1048.8733              1072.0765              1094.0094
 Red. masses --     2.5455                 1.7251                 1.9196
 Frc consts  --     1.6499                 1.1682                 1.3536
 IR Inten    --     5.7217                10.8983                 1.9324

                    34                     35                     36
                     A                      A                      A
 Frequencies --  1111.5196              1132.6507              1158.5257
 Red. masses --     2.4318                 2.5545                 1.3394
 Frc consts  --     1.7701                 1.9309                 1.0591
 IR Inten    --    16.3774                48.7825                 3.5456

                    37                     38                     39
                     A                      A                      A
 Frequencies --  1194.6293              1208.9499              1245.1507
 Red. masses --     2.2385                 2.1507                 2.2106
 Frc consts  --     1.8822                 1.8520                 2.0194
 IR Inten    --     1.0322                18.2020                33.4024

                    40                     41                     42
                     A                      A                      A
 Frequencies --  1276.3843              1288.8530              1341.1898
 Red. masses --     1.7960                 1.6851                 1.3713
 Frc consts  --     1.7239                 1.6492                 1.4534
 IR Inten    --    70.7478                54.0006                 3.5418

                    43                     44                     45
                     A                      A                      A
 Frequencies --  1355.6298              1396.2987              1430.1492
 Red. masses --     2.6997                 1.4056                 1.2286
 Frc consts  --     2.9232                 1.6146                 1.4805
 IR Inten    --     9.1794                36.7087                19.7400

                    46                     47                     48
                     A                      A                      A
 Frequencies --  1458.7436              1475.6942              1493.5934
 Red. masses --     1.2891                 2.5454                 1.0634
 Frc consts  --     1.6162                 3.2658                 1.3977
 IR Inten    --    14.0516                 8.0620                19.1437

                    49                     50                     51
                     A                      A                      A
 Frequencies --  1505.2260              1510.4050              1513.2217
 Red. masses --     1.1002                 1.0884                 1.1204
 Frc consts  --     1.4686                 1.4630                 1.5115
 IR Inten    --     6.6939                34.3345                14.4442

                    52                     53                     54
                     A                      A                      A
 Frequencies --  1533.7765              1542.5774              1553.8357
 Red. masses --     1.4651                 1.7739                 1.3588
 Frc consts  --     2.0307                 2.4869                 1.9329
 IR Inten    --    35.1960               139.6179                26.6845

                    55                     56                     57
                     A                      A                      A
 Frequencies --  1605.7470              1675.5614              1767.2943
 Red. masses --     5.0861                 5.5809                 9.0936
 Frc consts  --     7.7266                 9.2316                16.7341
 IR Inten    --    58.1970               199.6742               162.6619

                    58                     59                     60
                     A                      A                      A
 Frequencies --  3072.8406              3095.1197              3098.8490
 Red. masses --     1.0365                 1.0453                 1.0487
 Frc consts  --     5.7662                 5.8999                 5.9331
 IR Inten    --     1.3820                 1.4495                15.5294

                    61                     62                     63
                     A                      A                      A
 Frequencies --  3143.2673              3148.3231              3163.2377
 Red. masses --     1.1009                 1.1024                 1.1043
 Frc consts  --     6.4084                 6.4381                 6.5102
 IR Inten    --     3.7483                 6.7480                 5.1402

                    64                     65                     66
                     A                      A                      A
 Frequencies --  3187.4422              3204.7490              3245.0086
 Red. masses --     1.1084                 1.1068                 1.0929
 Frc consts  --     6.6348                 6.6972                 6.7803
 IR Inten    --    13.1487                 4.9407                 3.2943

                    67                     68                     69
                     A                      A                      A
 Frequencies --  3251.5789              3264.7590              3625.1723
 Red. masses --     1.0917                 1.0974                 1.0794
 Frc consts  --     6.8008                 6.8917                 8.3575
 IR Inten    --     5.4316                 5.8469                50.9609

 - Thermochemistry -
 -------------------
 Temperature   298.150 Kelvin.  Pressure   1.00000 Atm.
 Atom     1 has atomic number  6 and mass  12.00000

 Molecular mass:   199.06382 amu.
 Principal axes and moments of inertia in atomic units:
                           1         2         3
     Eigenvalues --  1779.523623998.077045027.99924
           X            0.99900   0.04458   0.00295
           Y           -0.04459   0.99900   0.00180
           Z           -0.00287  -0.00193   0.99999
 This molecule is an asymmetric top.
 Rotational symmetry number  1.
 Warning -- assumption of classical behavior for rotation
           may cause significant error
 Rotational temperatures (Kelvin)      0.04867     0.02166     0.01723
 Rotational constants (GHZ):           1.01417     0.45140     0.35894
 Zero-point vibrational energy     538827.6 (Joules/Mol)
                                  128.78288 (Kcal/Mol)
 Warning -- explicit consideration of  19 degrees of freedom as
           vibrations may cause significant error
 Vibrational temperatures:     56.61    78.50   110.93   116.82   190.74
          (Kelvin)            236.80   269.54   341.10   366.45   421.28
                              458.94   521.03   559.16   616.66   620.45
                              656.42   711.96   787.41   859.35   919.15
                              965.20   992.47  1045.12  1144.64  1214.61
                             1246.34  1308.60  1327.81  1407.39  1446.05
                             1509.09  1542.48  1574.03  1599.23  1629.63
                             1666.86  1718.80  1739.41  1791.49  1836.43
                             1854.37  1929.67  1950.45  2008.96  2057.66
                             2098.80  2123.19  2148.95  2165.68  2173.13
                             2177.19  2206.76  2219.42  2235.62  2310.31
                             2410.76  2542.74  4421.13  4453.18  4458.55
                             4522.45  4529.73  4551.19  4586.01  4610.91
                             4668.84  4678.29  4697.25  5215.81

 Zero-point correction=                           0.205229 (Hartree/Particle)
 Thermal correction to Energy=                    0.218222
 Thermal correction to Enthalpy=                  0.219166
 Thermal correction to Gibbs Free Energy=         0.164624
 Sum of electronic and zero-point Energies=           -994.695233
 Sum of electronic and thermal Energies=              -994.682239
 Sum of electronic and thermal Enthalpies=            -994.681295
 Sum of electronic and thermal Free Energies=         -994.735838

                     E (Thermal)             CV                S
                      KCal/Mol        Cal/Mol-Kelvin    Cal/Mol-Kelvin
 Total                  136.936             47.804            114.795
 Electronic               0.000              0.000              0.000
 Translational            0.889              2.981             41.770
 Rotational               0.889              2.981             31.948
 Vibrational            135.159             41.842             41.077
 Vibration     1          0.594              1.981              5.292
 Vibration     2          0.596              1.976              4.645
 Vibration     3          0.599              1.964              3.963
 Vibration     4          0.600              1.962              3.862
 Vibration     5          0.613              1.921              2.908
 Vibration     6          0.623              1.886              2.496
 Vibration     7          0.632              1.857              2.254
 Vibration     8          0.656              1.784              1.825
 Vibration     9          0.665              1.755              1.698
 Vibration    10          0.688              1.687              1.458
 Vibration    11          0.705              1.637              1.315
 Vibration    12          0.736              1.550              1.113
 Vibration    13          0.757              1.494              1.005
 Vibration    14          0.790              1.408              0.863
 Vibration    15          0.792              1.402              0.855
 Vibration    16          0.814              1.347              0.777
 Vibration    17          0.850              1.261              0.671
 Vibration    18          0.902              1.146              0.550
 Vibration    19          0.955              1.038              0.454

 Optimization completed.
    -- Stationary point found.
 Normal termination of Gaussian 09 at Fri Feb 16 20:33:28 2018.
