 Gaussian 09, Revision C.01,
 Gaussian 09:  AM64L-G09RevC.01 23-Sep-2011

 ----------------------------------------------------------------------
 #HF/6-31G* Geom=AllCheck Guess=Read Pop=(MK,ReadRadii) Integral=(Grid=
 UltraFine) iop(6/33=2)
 ----------------------------------------------------------------------

 Structure from the checkpoint file:  frag21-conf2.chk
 -----------------------------
 Optimization for frag21-conf2
 -----------------------------
 Charge =  1 Multiplicity = 1

                         Standard orientation:
 ---------------------------------------------------------------------
 Center     Atomic      Atomic             Coordinates (Angstroms)
 Number     Number       Type             X           Y           Z
 ---------------------------------------------------------------------
      1          6           0        2.359552    0.872253    0.647558
      2          6           0        0.902012   -0.557018   -0.631980
      3          6           0        1.390326    1.846927    0.568044
      4          6           0        2.110280   -0.361707    0.034806
      5          6           0       -0.050274    0.454374   -0.688118
      6          6           0       -2.623882   -0.744946    0.383270
      7          6           0       -3.542246   -1.838797    0.874065
      8          6           0       -0.795608    2.738598   -0.052299
      9          6           0       -1.347544    0.212831   -1.450642
     10          7           0        0.214491    1.649203   -0.084295
     11          7           0       -2.095770   -0.893373   -0.878977
     12          8           0       -2.330529    0.244007    1.049283
     13         17           0        3.283787   -1.618005    0.097523
     14          1           0        3.284388    1.068472    1.176528
     15          1           0        0.683747   -1.505474   -1.108559
     16          1           0        1.521928    2.817372    1.029370
     17          1           0       -3.256644   -2.108715    1.893963
     18          1           0       -4.565573   -1.449775    0.914118
     19          1           0       -3.528746   -2.732337    0.244247
     20          1           0       -0.981484    3.106442   -1.062910
     21          1           0       -1.703417    2.336144    0.400074
     22          1           0       -0.402548    3.551809    0.555616
     23          1           0       -1.957871    1.116948   -1.485983
     24          1           0       -1.087896   -0.050762   -2.480474
     25          1           0       -2.432780   -1.621997   -1.493458
 ---------------------------------------------------------------------

 SCF Done:  E(RHF) =  -990.853488950     A.U. after   14 cycles

 The electronic state is 1-A.
 Alpha  occ. eigenvalues -- -104.98366 -20.66323 -15.84383 -15.73704 -11.50203
 Alpha  occ. eigenvalues --  -11.49611 -11.49104 -11.48460 -11.44540 -11.42745
 Alpha  occ. eigenvalues --  -11.42434 -11.42278 -11.35214 -10.71676  -8.18615
 Alpha  occ. eigenvalues --   -8.18247  -8.18231  -1.51871  -1.50482  -1.37536
 Alpha  occ. eigenvalues --   -1.34409  -1.25039  -1.24028  -1.15031  -1.12897
 Alpha  occ. eigenvalues --   -1.09630  -1.05783  -0.99415  -0.93035  -0.88838
 Alpha  occ. eigenvalues --   -0.88191  -0.84462  -0.82804  -0.80177  -0.79232
 Alpha  occ. eigenvalues --   -0.78853  -0.77883  -0.74334  -0.72698  -0.72098
 Alpha  occ. eigenvalues --   -0.71434  -0.70863  -0.70306  -0.69275  -0.67207
 Alpha  occ. eigenvalues --   -0.65084  -0.63357  -0.60496  -0.56257  -0.54686
 Alpha  occ. eigenvalues --   -0.53762  -0.52186
 Alpha virt. eigenvalues --   -0.09020  -0.04792   0.04253   0.05801   0.08202
 Alpha virt. eigenvalues --    0.09282   0.11550   0.13436   0.13849   0.14837
 Alpha virt. eigenvalues --    0.16263   0.16939   0.17276   0.19054   0.19492

 Mulliken atomic charges:
              1
     1  C   -0.256181
     2  C   -0.251132
     3  C    0.171879
     4  C   -0.045208
     5  C    0.466750
     6  C    0.766349
     7  C   -0.588036
     8  C   -0.353961
     9  C   -0.174722
    10  N   -0.662134
    11  N   -0.800181
    12  O   -0.634474
    13  Cl   0.145316
    14  H    0.301839
    15  H    0.286877
    16  H    0.298245
    17  H    0.237940
    18  H    0.235684
    19  H    0.193208
    20  H    0.228611
    21  H    0.294581
    22  H    0.230481
    23  H    0.242737
    24  H    0.247115
    25  H    0.418416
 Sum of Mulliken atomic charges =   1.00000

 Dipole moment (field-independent basis, Debye):
    X=             -0.5255    Y=              2.5124    Z=             -2.8179  Tot=              3.8116
 Quadrupole moment (field-independent basis, Debye-Ang):
   XX=            -57.1017   YY=            -56.4906   ZZ=            -76.0893
   XY=             10.9380   XZ=             10.0050   YZ=              3.2051

 Normal termination of Gaussian 09 at Sat Feb 17 21:00:44 2018.
