 Gaussian 09, Revision C.01,
 Gaussian 09:  AM64L-G09RevC.01 23-Sep-2011

 ----------------------------------------------------------------------
 #HF/6-31G* Geom=AllCheck Guess=Read Pop=(MK,ReadRadii) Integral=(Grid=
 UltraFine) iop(6/33=2)
 ----------------------------------------------------------------------

 Structure from the checkpoint file:  frag43-conf0.chk
 -----------------------------
 Optimization for frag43-conf0
 -----------------------------
 Charge =  1 Multiplicity = 1

                         Standard orientation:
 ---------------------------------------------------------------------
 Center     Atomic      Atomic             Coordinates (Angstroms)
 Number     Number       Type             X           Y           Z
 ---------------------------------------------------------------------
      1          7           0       -2.446194   -1.036154    0.014586
      2          6           0       -1.635952    0.039449   -0.031059
      3          7           0       -2.178247    1.201625   -0.445046
      4          1           0       -1.610747    1.954132   -0.804910
      5          1           0       -3.178587    1.341558   -0.427353
      6          7           0       -0.352347   -0.044835    0.317209
      7          6           0        0.396164   -1.325618    0.351981
      8          6           0        1.654767   -1.229111   -0.523872
      9          6           0        2.524694   -0.020344   -0.154360
     10          6           0        1.698809    1.274068   -0.177440
     11          6           0        0.461911    1.131936    0.713513
     12          1           0       -3.318012   -1.049812   -0.495735
     13          1           0       -2.238045   -1.831546    0.599743
     14          1           0       -0.247386   -2.129096   -0.008325
     15          1           0        0.660277   -1.534718    1.396162
     16          1           0        1.347069   -1.164049   -1.575322
     17          1           0        2.216957   -2.162705   -0.412095
     18          1           0        3.370186    0.056954   -0.844981
     19          1           0        2.949523   -0.162982    0.848761
     20          1           0        1.389741    1.509357   -1.204662
     21          1           0        2.291335    2.121861    0.183120
     22          1           0       -0.164401    2.024801    0.711976
     23          1           0        0.767253    0.959513    1.753806
 ---------------------------------------------------------------------

 SCF Done:  E(RHF) =  -398.531504602     A.U. after   12 cycles

 The electronic state is 1-A.
 Alpha  occ. eigenvalues --  -15.77953 -15.77861 -15.77857 -11.58369 -11.42326
 Alpha  occ. eigenvalues --  -11.42290 -11.36281 -11.36157 -11.35189  -1.52124
 Alpha  occ. eigenvalues --   -1.39990  -1.36995  -1.22147  -1.17732  -1.09779
 Alpha  occ. eigenvalues --   -1.01030  -1.00054  -0.94764  -0.92127  -0.90107
 Alpha  occ. eigenvalues --   -0.85971  -0.84070  -0.79243  -0.77427  -0.76143
 Alpha  occ. eigenvalues --   -0.72626  -0.72046  -0.71281  -0.68099  -0.64394
 Alpha  occ. eigenvalues --   -0.62485  -0.60755  -0.59923  -0.59724  -0.54117
 Alpha virt. eigenvalues --    0.00827   0.03832   0.07679   0.08648   0.11492
 Alpha virt. eigenvalues --    0.12083   0.13056   0.15160   0.16386   0.16735
 Alpha virt. eigenvalues --    0.17778   0.19305   0.20002   0.20655   0.20767

 Mulliken atomic charges:
              1
     1  N   -0.924231
     2  C    1.031936
     3  N   -0.924418
     4  H    0.443767
     5  H    0.439156
     6  N   -0.679780
     7  C   -0.157725
     8  C   -0.327381
     9  C   -0.339333
    10  C   -0.325958
    11  C   -0.160203
    12  H    0.438900
    13  H    0.444297
    14  H    0.207335
    15  H    0.216244
    16  H    0.185864
    17  H    0.213203
    18  H    0.214151
    19  H    0.183811
    20  H    0.176065
    21  H    0.214054
    22  H    0.207649
    23  H    0.222598
 Sum of Mulliken atomic charges =   1.00000

 Dipole moment (field-independent basis, Debye):
    X=             -5.3736    Y=              0.1241    Z=             -0.1351  Tot=              5.3767
 Quadrupole moment (field-independent basis, Debye-Ang):
   XX=            -26.5697   YY=            -41.0422   ZZ=            -53.1660
   XY=              0.3735   XZ=              3.0826   YZ=             -2.8136

 Normal termination of Gaussian 09 at Fri Aug 24 15:36:05 2018.
