 Gaussian 09, Revision C.01,
 Gaussian 09:  AM64L-G09RevC.01 23-Sep-2011

 ---------------------------------------------------------
 #B3LYP/6-31G* Integral=(Grid=UltraFine) freq Opt pop=none
 ---------------------------------------------------------

 99/9=1/99;
 -----------------------------
 Optimization for frag43-conf0
 -----------------------------
 Charge =  1 Multiplicity = 1

 SCF Done:  E(RB3LYP) =  -401.124189618     A.U. after   13 cycles
 SCF Done:  E(RB3LYP) =  -401.126105611     A.U. after   11 cycles
 SCF Done:  E(RB3LYP) =  -401.126866767     A.U. after   10 cycles
 SCF Done:  E(RB3LYP) =  -401.127577137     A.U. after   12 cycles
 SCF Done:  E(RB3LYP) =  -401.124479821     A.U. after   13 cycles
 SCF Done:  E(RB3LYP) =  -401.128114831     A.U. after   13 cycles
 SCF Done:  E(RB3LYP) =  -401.128651463     A.U. after   11 cycles
 SCF Done:  E(RB3LYP) =  -401.129164906     A.U. after   11 cycles
 SCF Done:  E(RB3LYP) =  -401.129231950     A.U. after   10 cycles
 SCF Done:  E(RB3LYP) =  -401.129252089     A.U. after   10 cycles
 SCF Done:  E(RB3LYP) =  -401.129261573     A.U. after    8 cycles
 SCF Done:  E(RB3LYP) =  -401.129268445     A.U. after    9 cycles
 SCF Done:  E(RB3LYP) =  -401.129271181     A.U. after    8 cycles
 SCF Done:  E(RB3LYP) =  -401.129272389     A.U. after    8 cycles
 SCF Done:  E(RB3LYP) =  -401.129272851     A.U. after    7 cycles
 SCF Done:  E(RB3LYP) =  -401.129273326     A.U. after    7 cycles
 SCF Done:  E(RB3LYP) =  -401.129273489     A.U. after    7 cycles
 Optimization completed.
    -- Stationary point found.
 Normal termination of Gaussian 09 at Fri Aug 24 15:11:13 2018.

 --------------------------------------------------------------------
 #N Geom=AllCheck Guess=TCheck SCRF=Check GenChk RB3LYP/6-31G(d) Freq
 --------------------------------------------------------------------

 Structure from the checkpoint file:  frag43-conf0.chk
 -----------------------------
 Optimization for frag43-conf0
 -----------------------------
 Charge =  1 Multiplicity = 1

                         Standard orientation:
 ---------------------------------------------------------------------
 Center     Atomic      Atomic             Coordinates (Angstroms)
 Number     Number       Type             X           Y           Z
 ---------------------------------------------------------------------
      1          7           0       -2.446194   -1.036154    0.014586
      2          6           0       -1.635952    0.039449   -0.031059
      3          7           0       -2.178247    1.201625   -0.445046
      4          1           0       -1.610747    1.954132   -0.804910
      5          1           0       -3.178587    1.341558   -0.427353
      6          7           0       -0.352347   -0.044835    0.317209
      7          6           0        0.396164   -1.325618    0.351981
      8          6           0        1.654767   -1.229111   -0.523872
      9          6           0        2.524694   -0.020344   -0.154360
     10          6           0        1.698809    1.274068   -0.177440
     11          6           0        0.461911    1.131936    0.713513
     12          1           0       -3.318012   -1.049812   -0.495735
     13          1           0       -2.238045   -1.831546    0.599743
     14          1           0       -0.247386   -2.129096   -0.008325
     15          1           0        0.660277   -1.534718    1.396162
     16          1           0        1.347069   -1.164049   -1.575322
     17          1           0        2.216957   -2.162705   -0.412095
     18          1           0        3.370186    0.056954   -0.844981
     19          1           0        2.949523   -0.162982    0.848761
     20          1           0        1.389741    1.509357   -1.204662
     21          1           0        2.291335    2.121861    0.183120
     22          1           0       -0.164401    2.024801    0.711976
     23          1           0        0.767253    0.959513    1.753806
 ---------------------------------------------------------------------

 SCF Done:  E(RB3LYP) =  -401.129273489     A.U. after    1 cycles

 Isotropic polarizability for W=    0.000000       79.49 Bohr**3.
 End of Minotr Frequency-dependent properties file   721 does not exist.

                     1                      2                      3
                     A                      A                      A
 Frequencies --    59.7791               108.1092               186.5300
 Red. masses --     3.3314                 3.7439                 2.5691
 Frc consts  --     0.0070                 0.0258                 0.0527
 IR Inten    --     2.0409                 0.0513                 3.4765

                     4                      5                      6
                     A                      A                      A
 Frequencies --   254.7824               271.9426               296.4144
 Red. masses --     1.4836                 1.7809                 1.9166
 Frc consts  --     0.0567                 0.0776                 0.0992
 IR Inten    --    35.2357                25.0617               161.7163

                     7                      8                      9
                     A                      A                      A
 Frequencies --   348.2854               382.9698               410.4798
 Red. masses --     1.2967                 3.1973                 1.8276
 Frc consts  --     0.0927                 0.2763                 0.1814
 IR Inten    --   284.3662                12.2087                 2.5047

                    10                     11                     12
                     A                      A                      A
 Frequencies --   438.5762               464.4068               503.9803
 Red. masses --     2.2041                 1.1546                 2.0207
 Frc consts  --     0.2498                 0.1467                 0.3024
 IR Inten    --     2.7096                 0.1926                 0.4925

                    13                     14                     15
                     A                      A                      A
 Frequencies --   520.2135               540.3640               582.4000
 Red. masses --     2.2850                 1.2005                 1.8625
 Frc consts  --     0.3643                 0.2065                 0.3722
 IR Inten    --     0.1422                 3.7667                 5.1104

                    16                     17                     18
                     A                      A                      A
 Frequencies --   686.6741               726.2826               818.7604
 Red. masses --     5.3924                 3.0245                 1.5224
 Frc consts  --     1.4981                 0.9400                 0.6013
 IR Inten    --     1.8754                 3.6865                 0.4189

                    19                     20                     21
                     A                      A                      A
 Frequencies --   847.4133               867.1922               917.5545
 Red. masses --     2.6637                 1.4523                 2.4411
 Frc consts  --     1.1270                 0.6435                 1.2109
 IR Inten    --     0.0091                 8.2455                 3.6192

                    22                     23                     24
                     A                      A                      A
 Frequencies --   973.9517               999.0666              1037.7252
 Red. masses --     1.3465                 2.4718                 2.2503
 Frc consts  --     0.7525                 1.4537                 1.4278
 IR Inten    --     5.2233                10.9063                12.3279

                    25                     26                     27
                     A                      A                      A
 Frequencies --  1066.2689              1074.7947              1089.7948
 Red. masses --     2.1331                 1.4570                 1.7899
 Frc consts  --     1.4289                 0.9916                 1.2524
 IR Inten    --     3.3152                 6.8426                 0.2885

                    28                     29                     30
                     A                      A                      A
 Frequencies --  1126.4379              1137.5225              1197.2847
 Red. masses --     1.9120                 2.2116                 1.3559
 Frc consts  --     1.4294                 1.6860                 1.1452
 IR Inten    --    10.0527                10.1379                 2.8616

                    31                     32                     33
                     A                      A                      A
 Frequencies --  1208.5886              1252.5798              1301.7481
 Red. masses --     1.7342                 1.7732                 1.2335
 Frc consts  --     1.4924                 1.6392                 1.2315
 IR Inten    --     1.5584                 6.4749                 7.9657

                    34                     35                     36
                     A                      A                      A
 Frequencies --  1325.4695              1357.1119              1374.1465
 Red. masses --     1.1489                 1.4422                 1.2805
 Frc consts  --     1.1892                 1.5649                 1.4246
 IR Inten    --     7.2315                27.2436                 2.2912

                    37                     38                     39
                     A                      A                      A
 Frequencies --  1402.0869              1407.0730              1414.1623
 Red. masses --     1.3037                 1.4334                 1.4065
 Frc consts  --     1.5100                 1.6721                 1.6573
 IR Inten    --     3.0844                 0.5307                 3.9233

                    40                     41                     42
                     A                      A                      A
 Frequencies --  1424.8139              1506.6134              1512.8853
 Red. masses --     1.3785                 1.0918                 1.0986
 Frc consts  --     1.6489                 1.4601                 1.4815
 IR Inten    --    12.3580                 5.4008                23.6237

                    43                     44                     45
                     A                      A                      A
 Frequencies --  1513.9215              1522.4821              1534.8166
 Red. masses --     1.0839                 1.1042                 1.1473
 Frc consts  --     1.4637                 1.5080                 1.5923
 IR Inten    --    16.2781                15.6565                19.3679

                    46                     47                     48
                     A                      A                      A
 Frequencies --  1562.3434              1665.2297              1696.3979
 Red. masses --     1.9402                 1.7213                 1.7167
 Frc consts  --     2.7903                 2.8123                 2.9108
 IR Inten    --    28.6969                87.2325               322.2419

                    49                     50                     51
                     A                      A                      A
 Frequencies --  1705.9274              3044.5554              3049.8957
 Red. masses --     2.1402                 1.0714                 1.0687
 Frc consts  --     3.6696                 5.8512                 5.8570
 IR Inten    --   532.8032                 5.8501                12.7367

                    52                     53                     54
                     A                      A                      A
 Frequencies --  3057.6594              3061.0385              3066.4091
 Red. masses --     1.0666                 1.0675                 1.0655
 Frc consts  --     5.8751                 5.8933                 5.9028
 IR Inten    --     5.6871                12.2874                29.5165

                    55                     56                     57
                     A                      A                      A
 Frequencies --  3109.7197              3110.1233              3116.1552
 Red. masses --     1.0991                 1.0968                 1.1010
 Frc consts  --     6.2623                 6.2507                 6.2989
 IR Inten    --    12.2666                15.8219                21.4879

                    58                     59                     60
                     A                      A                      A
 Frequencies --  3153.6634              3153.9080              3604.9801
 Red. masses --     1.0981                 1.0950                 1.0466
 Frc consts  --     6.4345                 6.4173                 8.0135
 IR Inten    --    10.9392                11.5931               136.6517

                    61                     62                     63
                     A                      A                      A
 Frequencies --  3613.1276              3718.1944              3720.5074
 Red. masses --     1.0482                 1.1056                 1.1057
 Frc consts  --     8.0625                 9.0052                 9.0178
 IR Inten    --   131.4828                81.8658                86.5438

 - Thermochemistry -
 -------------------
 Temperature   298.150 Kelvin.  Pressure   1.00000 Atm.
 Atom     1 has atomic number  7 and mass  14.00307

 Molecular mass:   128.11877 amu.
 Principal axes and moments of inertia in atomic units:
                           1         2         3
     Eigenvalues --   617.290081517.892271932.47144
           X            1.00000   0.00156   0.00124
           Y           -0.00155   0.99999  -0.00524
           Z           -0.00125   0.00524   0.99999
 This molecule is an asymmetric top.
 Rotational symmetry number  1.
 Warning -- assumption of classical behavior for rotation
           may cause significant error
 Rotational temperatures (Kelvin)      0.14031     0.05706     0.04482
 Rotational constants (GHZ):           2.92365     1.18898     0.93390
 Zero-point vibrational energy     557485.5 (Joules/Mol)
                                  133.24222 (Kcal/Mol)
 Warning -- explicit consideration of  15 degrees of freedom as
           vibrations may cause significant error
 Vibrational temperatures:     86.01   155.54   268.37   366.57   391.26
          (Kelvin)            426.47   501.10   551.01   590.59   631.01
                              668.18   725.11   748.47   777.46   837.94
                              987.97  1044.96  1178.01  1219.24  1247.69
                             1320.15  1401.30  1437.43  1493.05  1534.12
                             1546.39  1567.97  1620.69  1636.64  1722.62
                             1738.89  1802.18  1872.92  1907.05  1952.58
                             1977.09  2017.29  2024.46  2034.66  2049.99
                             2167.68  2176.70  2178.19  2190.51  2208.26
                             2247.86  2395.89  2440.74  2454.45  4380.43
                             4388.11  4399.28  4404.15  4411.87  4474.19
                             4474.77  4483.45  4537.41  4537.76  5186.76
                             5198.48  5349.65  5352.97

 Zero-point correction=                           0.212335 (Hartree/Particle)
 Thermal correction to Energy=                    0.221809
 Thermal correction to Enthalpy=                  0.222753
 Thermal correction to Gibbs Free Energy=         0.178374
 Sum of electronic and zero-point Energies=           -400.916938
 Sum of electronic and thermal Energies=              -400.907465
 Sum of electronic and thermal Enthalpies=            -400.906521
 Sum of electronic and thermal Free Energies=         -400.950900

                     E (Thermal)             CV                S
                      KCal/Mol        Cal/Mol-Kelvin    Cal/Mol-Kelvin
 Total                  139.187             37.240             93.403
 Electronic               0.000              0.000              0.000
 Translational            0.889              2.981             40.457
 Rotational               0.889              2.981             28.984
 Vibrational            137.409             31.278             23.963
 Vibration     1          0.597              1.973              4.464
 Vibration     2          0.606              1.943              3.303
 Vibration     3          0.632              1.858              2.262
 Vibration     4          0.665              1.755              1.697
 Vibration     5          0.675              1.725              1.584
 Vibration     6          0.690              1.680              1.437
 Vibration     7          0.726              1.579              1.174
 Vibration     8          0.752              1.507              1.027
 Vibration     9          0.775              1.447              0.925
 Vibration    10          0.799              1.386              0.831
 Vibration    11          0.822              1.329              0.753
 Vibration    12          0.859              1.241              0.648
 Vibration    13          0.875              1.205              0.609
 Vibration    14          0.895              1.161              0.565
 Vibration    15          0.939              1.069              0.481

 Normal termination of Gaussian 09 at Fri Aug 24 15:17:21 2018.
