 Gaussian 09, Revision C.01,
 Gaussian 09:  AM64L-G09RevC.01 23-Sep-2011

 ---------------------------------------------------------
 #B3LYP/6-31G* Integral=(Grid=UltraFine) freq Opt pop=none
 ---------------------------------------------------------

 99/9=1/99;
 -----------------------------
 Optimization for frag43-conf0
 -----------------------------
 Charge =  1 Multiplicity = 1

 SCF Done:  E(RB3LYP) =  -786.236929756     A.U. after   16 cycles
 SCF Done:  E(RB3LYP) =  -786.247016440     A.U. after   14 cycles
 SCF Done:  E(RB3LYP) =  -786.249603259     A.U. after   15 cycles
 SCF Done:  E(RB3LYP) =  -786.249853344     A.U. after   14 cycles
 SCF Done:  E(RB3LYP) =  -786.251038730     A.U. after   13 cycles
 SCF Done:  E(RB3LYP) =  -786.250333122     A.U. after   13 cycles
 SCF Done:  E(RB3LYP) =  -786.251619062     A.U. after   12 cycles
 SCF Done:  E(RB3LYP) =  -786.251673378     A.U. after   12 cycles
 SCF Done:  E(RB3LYP) =  -786.251743939     A.U. after   11 cycles
 SCF Done:  E(RB3LYP) =  -786.251770355     A.U. after   11 cycles
 SCF Done:  E(RB3LYP) =  -786.251790526     A.U. after   10 cycles
 SCF Done:  E(RB3LYP) =  -786.251793343     A.U. after   10 cycles
 SCF Done:  E(RB3LYP) =  -786.251796876     A.U. after   10 cycles
 SCF Done:  E(RB3LYP) =  -786.251796408     A.U. after    8 cycles
 SCF Done:  E(RB3LYP) =  -786.251796682     A.U. after    8 cycles
 SCF Done:  E(RB3LYP) =  -786.251796759     A.U. after    7 cycles
 SCF Done:  E(RB3LYP) =  -786.251796873     A.U. after    7 cycles
 SCF Done:  E(RB3LYP) =  -786.251796990     A.U. after    7 cycles
 SCF Done:  E(RB3LYP) =  -786.251796885     A.U. after    7 cycles
 Optimization completed.
    -- Stationary point found.
 Normal termination of Gaussian 09 at Fri Feb 16 22:17:38 2018.

 --------------------------------------------------------------------
 #N Geom=AllCheck Guess=TCheck SCRF=Check GenChk RB3LYP/6-31G(d) Freq
 --------------------------------------------------------------------

 Structure from the checkpoint file:  frag43-conf0.chk
 -----------------------------
 Optimization for frag43-conf0
 -----------------------------
 Charge =  1 Multiplicity = 1

                         Standard orientation:
 ---------------------------------------------------------------------
 Center     Atomic      Atomic             Coordinates (Angstroms)
 Number     Number       Type             X           Y           Z
 ---------------------------------------------------------------------
      1          6           0       -3.820651    0.320221    0.211474
      2          6           0        0.458607   -1.549556   -0.467406
      3          6           0        2.994756    2.668766   -0.249053
      4          6           0        2.731299    2.126137    1.161943
      5          6           0        1.691645    2.783390   -1.051337
      6          6           0        1.973091    0.788774    1.122944
      7          6           0        0.935355    1.444389   -1.098594
      8          6           0        0.656445    0.916110    0.325340
      9          6           0        1.895883   -3.471916   -0.778510
     10          6           0        1.608502   -2.596472    1.507698
     11          6           0       -2.400311    0.911318    0.048903
     12          6           0       -0.161873   -0.401504    0.376108
     13          7           0       -4.829803    1.200651    0.285803
     14          7           0        1.292295   -2.450540    0.087889
     15          7           0       -1.523816   -0.246479   -0.285153
     16          8           0       -3.939126   -0.899104    0.290094
     17          8           0        0.141717   -1.553361   -1.665856
     18          1           0        3.489065    3.644835   -0.191337
     19          1           0        3.688284    1.997761   -0.775428
     20          1           0        3.673449    1.992098    1.705022
     21          1           0        2.143612    2.858089    1.734336
     22          1           0        1.048454    3.551021   -0.596466
     23          1           0        1.898490    3.117309   -2.074126
     24          1           0        2.610222    0.027288    0.653642
     25          1           0        1.765291    0.450834    2.146483
     26          1           0        0.001739    1.574583   -1.664033
     27          1           0        1.524708    0.707091   -1.656189
     28          1           0        0.051859    1.670833    0.851803
     29          1           0        2.980074   -3.478717   -0.628243
     30          1           0        1.665489   -3.243361   -1.816762
     31          1           0        1.496681   -4.459772   -0.523157
     32          1           0        1.323776   -3.600563    1.841128
     33          1           0        1.083917   -1.866933    2.120715
     34          1           0        2.684490   -2.470607    1.668344
     35          1           0       -2.079723    1.353159    0.995482
     36          1           0       -2.337016    1.670957   -0.732294
     37          1           0       -0.364286   -0.676047    1.413102
     38          1           0       -4.702424    2.198646    0.191707
     39          1           0       -5.770505    0.850026    0.420650
     40          1           0       -2.130937   -1.068102   -0.058115
     41          1           0       -1.312655   -0.344073   -1.297016
 ---------------------------------------------------------------------

 SCF Done:  E(RB3LYP) =  -786.251796885     A.U. after    1 cycles

 Isotropic polarizability for W=    0.000000      148.01 Bohr**3.
 End of Minotr Frequency-dependent properties file   721 does not exist.

                     1                      2                      3
                     A                      A                      A
 Frequencies --    29.9306                44.8629                55.7021
 Red. masses --     3.9425                 3.6838                 3.3307
 Frc consts  --     0.0021                 0.0044                 0.0061
 IR Inten    --     3.6985                 4.3945                 4.2039

                     4                      5                      6
                     A                      A                      A
 Frequencies --    63.3885                69.6009                86.6150
 Red. masses --     2.8396                 4.7691                 1.5926
 Frc consts  --     0.0067                 0.0136                 0.0070
 IR Inten    --     0.4798                 6.7542                 0.8220

                     7                      8                      9
                     A                      A                      A
 Frequencies --   106.8208               118.9774               136.7200
 Red. masses --     1.5204                 1.5648                 2.6520
 Frc consts  --     0.0102                 0.0131                 0.0292
 IR Inten    --     0.8914                 0.7033                 5.0065

                    10                     11                     12
                     A                      A                      A
 Frequencies --   154.5971               179.6885               196.5022
 Red. masses --     3.1541                 3.6208                 3.3454
 Frc consts  --     0.0444                 0.0689                 0.0761
 IR Inten    --     0.4206                 4.2148                 2.9233

                    13                     14                     15
                     A                      A                      A
 Frequencies --   233.9098               259.5197               259.9988
 Red. masses --     2.1152                 3.9679                 2.9348
 Frc consts  --     0.0682                 0.1575                 0.1169
 IR Inten    --     0.7536                 6.2784                 1.3669

                    16                     17                     18
                     A                      A                      A
 Frequencies --   279.7834               299.9719               336.3249
 Red. masses --     2.7297                 2.8521                 1.8722
 Frc consts  --     0.1259                 0.1512                 0.1248
 IR Inten    --     7.3742                19.0576                 1.6426

                    19                     20                     21
                     A                      A                      A
 Frequencies --   361.6717               396.9430               410.6101
 Red. masses --     1.2702                 3.2290                 2.9971
 Frc consts  --     0.0979                 0.2998                 0.2977
 IR Inten    --   189.0522                25.8408                 6.0937

                    22                     23                     24
                     A                      A                      A
 Frequencies --   439.8729               449.0847               466.1802
 Red. masses --     3.0846                 3.0550                 2.4880
 Frc consts  --     0.3516                 0.3630                 0.3186
 IR Inten    --     8.6834                 3.3045                10.0226

                    25                     26                     27
                     A                      A                      A
 Frequencies --   477.9324               514.6759               532.2738
 Red. masses --     2.0504                 1.6510                 2.6112
 Frc consts  --     0.2759                 0.2577                 0.4359
 IR Inten    --    35.7040                45.8674                48.2035

                    28                     29                     30
                     A                      A                      A
 Frequencies --   589.3906               626.8995               652.6783
 Red. masses --     2.7547                 4.7678                 2.4300
 Frc consts  --     0.5638                 1.1040                 0.6099
 IR Inten    --    19.2247                 6.5210                 8.0596

                    31                     32                     33
                     A                      A                      A
 Frequencies --   668.4021               744.7313               769.7449
 Red. masses --     2.0004                 3.9797                 3.9407
 Frc consts  --     0.5265                 1.3005                 1.3757
 IR Inten    --     8.8987                12.0793                 6.6683

                    34                     35                     36
                     A                      A                      A
 Frequencies --   803.1025               816.1161               832.7020
 Red. masses --     1.4907                 2.3023                 2.5654
 Frc consts  --     0.5665                 0.9035                 1.0480
 IR Inten    --     0.4330                 7.2772                 3.7120

                    37                     38                     39
                     A                      A                      A
 Frequencies --   852.3952               901.6192               909.0779
 Red. masses --     2.6176                 2.3383                 1.8615
 Frc consts  --     1.1206                 1.1200                 0.9064
 IR Inten    --     1.8289                 7.0967                 8.3974

                    40                     41                     42
                     A                      A                      A
 Frequencies --   925.1393               932.0852               951.1074
 Red. masses --     1.8375                 1.6256                 2.0739
 Frc consts  --     0.9266                 0.8321                 1.1054
 IR Inten    --     1.4910                12.8968                 7.7540

                    43                     44                     45
                     A                      A                      A
 Frequencies --   968.9574              1004.5957              1043.8482
 Red. masses --     2.7196                 2.3789                 2.0285
 Frc consts  --     1.5044                 1.4145                 1.3022
 IR Inten    --     5.8349                20.2378                 1.3116

                    46                     47                     48
                     A                      A                      A
 Frequencies --  1047.6658              1060.4164              1076.7035
 Red. masses --     2.0717                 2.6172                 2.2878
 Frc consts  --     1.3398                 1.7340                 1.5626
 IR Inten    --     1.5640                 7.6840                 6.3881

                    49                     50                     51
                     A                      A                      A
 Frequencies --  1082.8878              1090.9819              1103.3270
 Red. masses --     1.5312                 1.4920                 1.8302
 Frc consts  --     1.0579                 1.0463                 1.3127
 IR Inten    --     8.3407                 0.8617                 0.9300

                    52                     53                     54
                     A                      A                      A
 Frequencies --  1113.3722              1128.8891              1132.7888
 Red. masses --     1.6021                 1.8022                 1.2433
 Frc consts  --     1.1701                 1.3532                 0.9400
 IR Inten    --     1.1527                 8.5426                 0.4745

                    55                     56                     57
                     A                      A                      A
 Frequencies --  1167.4402              1174.6023              1183.9989
 Red. masses --     2.1096                 1.7532                 1.4129
 Frc consts  --     1.6941                 1.4252                 1.1670
 IR Inten    --     3.3446                53.0482                 4.9114

                    58                     59                     60
                     A                      A                      A
 Frequencies --  1207.8623              1239.9982              1261.3755
 Red. masses --     1.2521                 1.4693                 1.4922
 Frc consts  --     1.0763                 1.3310                 1.3988
 IR Inten    --     5.2698                12.1470                 2.5033

                    61                     62                     63
                     A                      A                      A
 Frequencies --  1268.7280              1302.8061              1306.3856
 Red. masses --     3.1237                 1.3093                 1.2826
 Frc consts  --     2.9625                 1.3093                 1.2897
 IR Inten    --    51.5599                15.2153                 5.1464

                    64                     65                     66
                     A                      A                      A
 Frequencies --  1311.0076              1326.8460              1330.0318
 Red. masses --     1.2646                 1.3733                 1.2465
 Frc consts  --     1.2806                 1.4244                 1.2992
 IR Inten    --     2.2689                 0.8062                24.7340

                    67                     68                     69
                     A                      A                      A
 Frequencies --  1354.6107              1366.3821              1387.0234
 Red. masses --     1.2500                 1.2540                 1.3876
 Frc consts  --     1.3514                 1.3794                 1.5728
 IR Inten    --     1.1491                11.7865                 1.4516

                    70                     71                     72
                     A                      A                      A
 Frequencies --  1390.9690              1405.5429              1406.2342
 Red. masses --     1.3574                 1.4401                 1.4621
 Frc consts  --     1.5474                 1.6762                 1.7035
 IR Inten    --     3.4947                 5.2527                 7.9707

                    73                     74                     75
                     A                      A                      A
 Frequencies --  1415.3874              1420.9277              1426.7759
 Red. masses --     1.8575                 1.3664                 1.6967
 Frc consts  --     2.1925                 1.6255                 2.0350
 IR Inten    --   163.0181                48.0863               361.9817

                    76                     77                     78
                     A                      A                      A
 Frequencies --  1461.3655              1473.1103              1478.1944
 Red. masses --     1.1624                 1.4559                 1.9265
 Frc consts  --     1.4625                 1.8615                 2.4801
 IR Inten    --    13.4507                76.3552                11.5212

                    79                     80                     81
                     A                      A                      A
 Frequencies --  1501.1701              1505.3145              1509.9159
 Red. masses --     1.1664                 1.0750                 1.0836
 Frc consts  --     1.5487                 1.4352                 1.4555
 IR Inten    --    13.8110                 6.8498                 6.3795

                    82                     83                     84
                     A                      A                      A
 Frequencies --  1512.8563              1516.3119              1517.4687
 Red. masses --     1.1085                 1.0919                 1.0910
 Frc consts  --     1.4947                 1.4791                 1.4802
 IR Inten    --    29.9969                 4.0649                 3.7064

                    85                     86                     87
                     A                      A                      A
 Frequencies --  1522.8432              1525.2724              1531.1997
 Red. masses --     1.0834                 1.0801                 1.0580
 Frc consts  --     1.4803                 1.4805                 1.4616
 IR Inten    --    17.5254                13.4619                13.3731

                    88                     89                     90
                     A                      A                      A
 Frequencies --  1536.0817              1564.4137              1657.0083
 Red. masses --     1.0962                 1.3778                 1.2699
 Frc consts  --     1.5240                 1.9867                 2.0543
 IR Inten    --     1.7023                39.3819               110.6033

                    91                     92                     93
                     A                      A                      A
 Frequencies --  1686.7952              1733.3324              1813.1629
 Red. masses --     1.0990                 5.7655                 6.7447
 Frc consts  --     1.8424                10.2059                13.0643
 IR Inten    --    97.2671               279.7114               250.4117

                    94                     95                     96
                     A                      A                      A
 Frequencies --  3006.9684              3025.0001              3032.2857
 Red. masses --     1.0819                 1.0702                 1.0699
 Frc consts  --     5.7635                 5.7698                 5.7961
 IR Inten    --    17.0557                24.1884                20.6810

                    97                     98                     99
                     A                      A                      A
 Frequencies --  3033.0409              3037.6022              3042.4354
 Red. masses --     1.0683                 1.0604                 1.0642
 Frc consts  --     5.7904                 5.7647                 5.8036
 IR Inten    --    39.2639                19.7976                38.0319

                   100                    101                    102
                     A                      A                      A
 Frequencies --  3063.7138              3068.3452              3080.0714
 Red. masses --     1.0382                 1.0385                 1.1020
 Frc consts  --     5.7414                 5.7605                 6.1598
 IR Inten    --    10.6326                35.9915                29.3371

                   103                    104                    105
                     A                      A                      A
 Frequencies --  3089.0939              3095.7950              3097.1342
 Red. masses --     1.0943                 1.0958                 1.0945
 Frc consts  --     6.1524                 6.1876                 6.1857
 IR Inten    --    17.3891                23.0939                28.5121

                   106                    107                    108
                     A                      A                      A
 Frequencies --  3100.7415              3109.9459              3120.4902
 Red. masses --     1.1007                 1.0597                 1.1057
 Frc consts  --     6.2354                 6.0387                 6.3435
 IR Inten    --    52.2118                14.0660                10.4054

                   109                    110                    111
                     A                      A                      A
 Frequencies --  3127.7205              3127.9231              3132.0004
 Red. masses --     1.0952                 1.0951                 1.0729
 Frc consts  --     6.3127                 6.3127                 6.2007
 IR Inten    --     5.2343                24.6442               318.9121

                   112                    113                    114
                     A                      A                      A
 Frequencies --  3168.5202              3202.9713              3212.2774
 Red. masses --     1.1083                 1.0962                 1.0997
 Frc consts  --     6.5557                 6.6258                 6.6858
 IR Inten    --     0.6035                14.4566                 0.4873

                   115                    116                    117
                     A                      A                      A
 Frequencies --  3264.7667              3580.1282              3698.2696
 Red. masses --     1.0764                 1.0467                 1.1057
 Frc consts  --     6.7599                 7.9043                 8.9105
 IR Inten    --   197.2356               117.8206                75.6873

 - Thermochemistry -
 -------------------
 Temperature   298.150 Kelvin.  Pressure   1.00000 Atm.
 Atom     1 has atomic number  6 and mass  12.00000

 Molecular mass:   242.18685 amu.
 Principal axes and moments of inertia in atomic units:
                           1         2         3
     Eigenvalues --  3664.831765694.474817992.62687
           X            0.99986  -0.01598   0.00523
           Y            0.01604   0.99980  -0.01178
           Z           -0.00504   0.01186   0.99992
 This molecule is an asymmetric top.
 Rotational symmetry number  1.
 Warning -- assumption of classical behavior for rotation
           may cause significant error
 Rotational temperatures (Kelvin)      0.02363     0.01521     0.01084
 Rotational constants (GHZ):           0.49245     0.31693     0.22580
 Zero-point vibrational energy     975015.0 (Joules/Mol)
                                  233.03418 (Kcal/Mol)
 Warning -- explicit consideration of  28 degrees of freedom as
           vibrations may cause significant error
 Vibrational temperatures:     43.06    64.55    80.14    91.20   100.14
          (Kelvin)            124.62   153.69   171.18   196.71   222.43
                              258.53   282.72   336.54   373.39   374.08
                              402.55   431.59   483.90   520.36   571.11
                              590.78   632.88   646.13   670.73   687.64
                              740.50   765.82   848.00   901.97   939.06
                              961.68  1071.50  1107.49  1155.48  1174.21
                             1198.07  1226.41  1297.23  1307.96  1331.07
                             1341.06  1368.43  1394.11  1445.39  1501.86
                             1507.36  1525.70  1549.13  1558.03  1569.68
                             1587.44  1601.89  1624.22  1629.83  1679.68
                             1689.99  1703.51  1737.84  1784.08  1814.84
                             1825.41  1874.44  1879.60  1886.25  1909.03
                             1913.62  1948.98  1965.92  1995.61  2001.29
                             2022.26  2023.25  2036.42  2044.40  2052.81
                             2102.58  2119.47  2126.79  2159.85  2165.81
                             2172.43  2176.66  2181.63  2183.30  2191.03
                             2194.52  2203.05  2210.08  2250.84  2384.06
                             2426.92  2493.88  2608.73  4326.35  4352.30
                             4362.78  4363.86  4370.43  4377.38  4408.00
                             4414.66  4431.53  4444.51  4454.15  4456.08
                             4461.27  4474.51  4489.68  4500.09  4500.38
                             4506.24  4558.79  4608.36  4621.74  4697.27
                             5151.00  5320.98

 Zero-point correction=                           0.371364 (Hartree/Particle)
 Thermal correction to Energy=                    0.390023
 Thermal correction to Enthalpy=                  0.390967
 Thermal correction to Gibbs Free Energy=         0.323647
 Sum of electronic and zero-point Energies=           -785.880433
 Sum of electronic and thermal Energies=              -785.861774
 Sum of electronic and thermal Enthalpies=            -785.860830
 Sum of electronic and thermal Free Energies=         -785.928150

                     E (Thermal)             CV                S
                      KCal/Mol        Cal/Mol-Kelvin    Cal/Mol-Kelvin
 Total                  244.743             69.682            141.687
 Electronic               0.000              0.000              0.000
 Translational            0.889              2.981             42.355
 Rotational               0.889              2.981             33.478
 Vibrational            242.965             63.720             65.854
 Vibration     1          0.594              1.984              5.834
 Vibration     2          0.595              1.979              5.032
 Vibration     3          0.596              1.975              4.604
 Vibration     4          0.597              1.972              4.349
 Vibration     5          0.598              1.969              4.165
 Vibration     6          0.601              1.959              3.735
 Vibration     7          0.606              1.944              3.326
 Vibration     8          0.609              1.934              3.117
 Vibration     9          0.614              1.917              2.849
 Vibration    10          0.620              1.898              2.615
 Vibration    11          0.629              1.867              2.332
 Vibration    12          0.636              1.845              2.166
 Vibration    13          0.654              1.789              1.849
 Vibration    14          0.668              1.747              1.665
 Vibration    15          0.668              1.746              1.662
 Vibration    16          0.680              1.711              1.535
 Vibration    17          0.693              1.674              1.417
 Vibration    18          0.717              1.603              1.230
 Vibration    19          0.736              1.551              1.115
 Vibration    20          0.763              1.477              0.974
 Vibration    21          0.775              1.447              0.924
 Vibration    22          0.800              1.383              0.827
 Vibration    23          0.808              1.363              0.799
 Vibration    24          0.824              1.325              0.748
 Vibration    25          0.834              1.299              0.716
 Vibration    26          0.870              1.217              0.622
 Vibration    27          0.887              1.179              0.582
 Vibration    28          0.947              1.054              0.468

 Normal termination of Gaussian 09 at Fri Feb 16 23:56:07 2018.
