 Gaussian 09, Revision C.01,
 Gaussian 09:  AM64L-G09RevC.01 23-Sep-2011

 ----------------------------------------------------------------------
 #HF/6-31G* Geom=AllCheck Guess=Read Pop=(MK,ReadRadii) Integral=(Grid=
 UltraFine) iop(6/33=2)
 ----------------------------------------------------------------------

 Structure from the checkpoint file:  frag43-conf0.chk
 -----------------------------
 Optimization for frag43-conf0
 -----------------------------
 Charge =  1 Multiplicity = 1

                         Standard orientation:
 ---------------------------------------------------------------------
 Center     Atomic      Atomic             Coordinates (Angstroms)
 Number     Number       Type             X           Y           Z
 ---------------------------------------------------------------------
      1          6           0       -3.820651    0.320221    0.211474
      2          6           0        0.458607   -1.549556   -0.467406
      3          6           0        2.994756    2.668766   -0.249053
      4          6           0        2.731299    2.126137    1.161943
      5          6           0        1.691645    2.783390   -1.051337
      6          6           0        1.973091    0.788774    1.122944
      7          6           0        0.935355    1.444389   -1.098594
      8          6           0        0.656445    0.916110    0.325340
      9          6           0        1.895883   -3.471916   -0.778510
     10          6           0        1.608502   -2.596472    1.507698
     11          6           0       -2.400311    0.911318    0.048903
     12          6           0       -0.161873   -0.401504    0.376108
     13          7           0       -4.829803    1.200651    0.285803
     14          7           0        1.292295   -2.450540    0.087889
     15          7           0       -1.523816   -0.246479   -0.285153
     16          8           0       -3.939126   -0.899104    0.290094
     17          8           0        0.141717   -1.553361   -1.665856
     18          1           0        3.489065    3.644835   -0.191337
     19          1           0        3.688284    1.997761   -0.775428
     20          1           0        3.673449    1.992098    1.705022
     21          1           0        2.143612    2.858089    1.734336
     22          1           0        1.048454    3.551021   -0.596466
     23          1           0        1.898490    3.117309   -2.074126
     24          1           0        2.610222    0.027288    0.653642
     25          1           0        1.765291    0.450834    2.146483
     26          1           0        0.001739    1.574583   -1.664033
     27          1           0        1.524708    0.707091   -1.656189
     28          1           0        0.051859    1.670833    0.851803
     29          1           0        2.980074   -3.478717   -0.628243
     30          1           0        1.665489   -3.243361   -1.816762
     31          1           0        1.496681   -4.459772   -0.523157
     32          1           0        1.323776   -3.600563    1.841128
     33          1           0        1.083917   -1.866933    2.120715
     34          1           0        2.684490   -2.470607    1.668344
     35          1           0       -2.079723    1.353159    0.995482
     36          1           0       -2.337016    1.670957   -0.732294
     37          1           0       -0.364286   -0.676047    1.413102
     38          1           0       -4.702424    2.198646    0.191707
     39          1           0       -5.770505    0.850026    0.420650
     40          1           0       -2.130937   -1.068102   -0.058115
     41          1           0       -1.312655   -0.344073   -1.297016
 ---------------------------------------------------------------------

 SCF Done:  E(RHF) =  -781.288823784     A.U. after   13 cycles

 The electronic state is 1-A.
 Alpha  occ. eigenvalues --  -20.69326 -20.66930 -15.83347 -15.74359 -15.73674
 Alpha  occ. eigenvalues --  -11.52608 -11.50490 -11.46534 -11.45910 -11.39366
 Alpha  occ. eigenvalues --  -11.38669 -11.36949 -11.35176 -11.34966 -11.33091
 Alpha  occ. eigenvalues --  -11.33054 -11.32193  -1.54987  -1.52785  -1.45427
 Alpha  occ. eigenvalues --   -1.38099  -1.36981  -1.25572  -1.19257  -1.14541
 Alpha  occ. eigenvalues --   -1.12435  -1.09677  -1.09469  -1.04622  -0.97134
 Alpha  occ. eigenvalues --   -0.96023  -0.94268  -0.93006  -0.90909  -0.87798
 Alpha  occ. eigenvalues --   -0.86474  -0.83974  -0.83088  -0.81863  -0.79554
 Alpha  occ. eigenvalues --   -0.78385  -0.77487  -0.76327  -0.74953  -0.73804
 Alpha  occ. eigenvalues --   -0.72243  -0.71671  -0.71546  -0.69896  -0.69452
 Alpha  occ. eigenvalues --   -0.68011  -0.67566  -0.66353  -0.65457  -0.64679
 Alpha  occ. eigenvalues --   -0.64066  -0.63107  -0.61529  -0.60269  -0.59252
 Alpha  occ. eigenvalues --   -0.57047  -0.56525  -0.56235  -0.55276  -0.54863
 Alpha  occ. eigenvalues --   -0.50425
 Alpha virt. eigenvalues --    0.02806   0.03299   0.05578   0.07937   0.08797
 Alpha virt. eigenvalues --    0.10755   0.11572   0.12320   0.13571   0.13858
 Alpha virt. eigenvalues --    0.15905   0.16065   0.17319   0.17942   0.18073

 Mulliken atomic charges:
              1
     1  C    0.781908
     2  C    0.828779
     3  C   -0.320930
     4  C   -0.320187
     5  C   -0.320824
     6  C   -0.329562
     7  C   -0.330195
     8  C   -0.187726
     9  C   -0.315849
    10  C   -0.299949
    11  C   -0.245395
    12  C   -0.093295
    13  N   -0.911480
    14  N   -0.671767
    15  N   -0.844741
    16  O   -0.615645
    17  O   -0.662459
    18  H    0.195286
    19  H    0.170616
    20  H    0.195939
    21  H    0.166390
    22  H    0.157756
    23  H    0.197841
    24  H    0.181628
    25  H    0.173940
    26  H    0.146765
    27  H    0.207270
    28  H    0.178598
    29  H    0.196916
    30  H    0.252370
    31  H    0.199512
    32  H    0.214272
    33  H    0.179639
    34  H    0.210087
    35  H    0.264773
    36  H    0.261602
    37  H    0.247238
    38  H    0.421831
    39  H    0.441936
    40  H    0.499764
    41  H    0.497347
 Sum of Mulliken atomic charges =   1.00000

 Dipole moment (field-independent basis, Debye):
    X=             -3.8960    Y=              2.6219    Z=              2.8175  Tot=              5.4764
 Quadrupole moment (field-independent basis, Debye-Ang):
   XX=            -60.7510   YY=            -80.8803   ZZ=           -102.2308
   XY=            -24.6525   XZ=              1.4405   YZ=             -4.5557

 Normal termination of Gaussian 09 at Sat Feb 17 21:06:25 2018.
