 Gaussian 09, Revision C.01,
 Gaussian 09:  AM64L-G09RevC.01 23-Sep-2011

 ----------------------------------------------------------------------
 #HF/6-31G* Geom=AllCheck Guess=Read Pop=(MK,ReadRadii) Integral=(Grid=
 UltraFine) iop(6/33=2)
 ----------------------------------------------------------------------

 Structure from the checkpoint file:  frag1-conf1.chk
 ----------------------------
 Optimization for frag1-conf1
 ----------------------------
 Charge =  0 Multiplicity = 1

                         Standard orientation:
 ---------------------------------------------------------------------
 Center     Atomic      Atomic             Coordinates (Angstroms)
 Number     Number       Type             X           Y           Z
 ---------------------------------------------------------------------
      1          6           0       -1.424837   -0.485200   -0.799050
      2          6           0        1.241150    0.643649   -0.035032
      3          6           0       -2.633703   -1.399611   -0.967407
      4          6           0       -0.533509    2.438150    0.035470
      5          6           0        2.984947   -1.023450   -0.339049
      6          6           0        1.185983   -1.520665    1.256651
      7          6           0       -2.148284    0.012796    1.543322
      8          6           0       -0.117632    1.069296    0.583400
      9          7           0        1.777119   -0.568054    0.335763
     10          7           0       -1.198793    0.072020    0.441104
     11          8           0       -0.665297   -0.272837   -1.737574
     12          8           0        1.847634    1.427406   -0.753477
     13          1           0       -3.576856   -0.858840   -0.828497
     14          1           0       -2.599455   -1.789413   -1.985232
     15          1           0       -2.621559   -2.239911   -0.264041
     16          1           0       -0.661213    2.381068   -1.047156
     17          1           0       -1.473014    2.760632    0.498687
     18          1           0        0.236884    3.183279    0.245084
     19          1           0        3.776937   -1.234356    0.391648
     20          1           0        3.315582   -0.238921   -1.017449
     21          1           0        2.784262   -1.940504   -0.909466
     22          1           0        0.635355   -2.318173    0.736627
     23          1           0        0.508477   -1.032607    1.957246
     24          1           0        1.987309   -1.989157    1.841391
     25          1           0       -1.623471   -0.203611    2.482674
     26          1           0       -2.881884   -0.776025    1.383100
     27          1           0       -2.686805    0.962544    1.669855
     28          1           0        0.047786    1.159894    1.666038
 ---------------------------------------------------------------------

 SCF Done:  E(RHF) =  -570.888393580     A.U. after   14 cycles

 The electronic state is 1-A.
 Alpha  occ. eigenvalues --  -20.52816 -20.50791 -15.60065 -15.58015 -11.35939
 Alpha  occ. eigenvalues --  -11.34416 -11.28569 -11.28358 -11.26684 -11.24473
 Alpha  occ. eigenvalues --  -11.24348 -11.21131  -1.38294  -1.36166  -1.25221
 Alpha  occ. eigenvalues --   -1.22846  -1.04937  -1.00068  -0.96543  -0.95621
 Alpha  occ. eigenvalues --   -0.93406  -0.86296  -0.76997  -0.71581  -0.69873
 Alpha  occ. eigenvalues --   -0.67467  -0.65787  -0.64426  -0.63380  -0.62913
 Alpha  occ. eigenvalues --   -0.59481  -0.58807  -0.58098  -0.57253  -0.55957
 Alpha  occ. eigenvalues --   -0.55693  -0.55094  -0.53944  -0.52298  -0.51451
 Alpha  occ. eigenvalues --   -0.51269  -0.49911  -0.49596  -0.41776  -0.40807
 Alpha  occ. eigenvalues --   -0.37377  -0.35608
 Alpha virt. eigenvalues --    0.18524   0.19043   0.21306   0.23622   0.24432
 Alpha virt. eigenvalues --    0.26137   0.28468   0.28798   0.29745   0.29929
 Alpha virt. eigenvalues --    0.31248   0.32056   0.32900   0.33278   0.33618

 Mulliken atomic charges:
              1
     1  C    0.767416
     2  C    0.850884
     3  C   -0.598582
     4  C   -0.462620
     5  C   -0.290311
     6  C   -0.258944
     7  C   -0.286321
     8  C   -0.075253
     9  N   -0.667678
    10  N   -0.673868
    11  O   -0.612543
    12  O   -0.635998
    13  H    0.191029
    14  H    0.225488
    15  H    0.186487
    16  H    0.212829
    17  H    0.143096
    18  H    0.188444
    19  H    0.154873
    20  H    0.239662
    21  H    0.162938
    22  H    0.163495
    23  H    0.170053
    24  H    0.172428
    25  H    0.172209
    26  H    0.192446
    27  H    0.178487
    28  H    0.189853
 Sum of Mulliken atomic charges =   0.00000

 Dipole moment (field-independent basis, Debye):
    X=             -3.6653    Y=             -2.9530    Z=              4.9551  Tot=              6.8343
 Quadrupole moment (field-independent basis, Debye-Ang):
   XX=            -67.6315   YY=            -73.6395   ZZ=            -77.5567
   XY=             -4.5059   XZ=              1.2481   YZ=              2.4755

 Normal termination of Gaussian 09 at Mon Feb 26 23:17:26 2018.
