 Gaussian 09, Revision C.01,
 Gaussian 09:  AM64L-G09RevC.01 23-Sep-2011

 ---------------------------------------------------------
 #B3LYP/6-31G* Integral=(Grid=UltraFine) freq Opt pop=none
 ---------------------------------------------------------

 99/9=1/99;
 ----------------------------
 Optimization for frag1-conf1
 ----------------------------
 Charge =  0 Multiplicity = 1

 SCF Done:  E(RB3LYP) =  -574.445973607     A.U. after   15 cycles
 SCF Done:  E(RB3LYP) =  -574.450558732     A.U. after   13 cycles
 SCF Done:  E(RB3LYP) =  -574.449055380     A.U. after   14 cycles
 SCF Done:  E(RB3LYP) =  -574.451084821     A.U. after   13 cycles
 SCF Done:  E(RB3LYP) =  -574.451340072     A.U. after   13 cycles
 SCF Done:  E(RB3LYP) =  -574.451283522     A.U. after   12 cycles
 SCF Done:  E(RB3LYP) =  -574.451492444     A.U. after   12 cycles
 SCF Done:  E(RB3LYP) =  -574.451548800     A.U. after   11 cycles
 SCF Done:  E(RB3LYP) =  -574.451584441     A.U. after   10 cycles
 SCF Done:  E(RB3LYP) =  -574.451595658     A.U. after   10 cycles
 SCF Done:  E(RB3LYP) =  -574.451607964     A.U. after    9 cycles
 SCF Done:  E(RB3LYP) =  -574.451627081     A.U. after   10 cycles
 SCF Done:  E(RB3LYP) =  -574.451634800     A.U. after   10 cycles
 SCF Done:  E(RB3LYP) =  -574.451639145     A.U. after    9 cycles
 SCF Done:  E(RB3LYP) =  -574.451642677     A.U. after    9 cycles
 SCF Done:  E(RB3LYP) =  -574.451644824     A.U. after    9 cycles
 SCF Done:  E(RB3LYP) =  -574.451645204     A.U. after    8 cycles
 SCF Done:  E(RB3LYP) =  -574.451645282     A.U. after    7 cycles
 Optimization completed.
    -- Stationary point found.
 Normal termination of Gaussian 09 at Mon Feb 26 22:28:40 2018.

 --------------------------------------------------------------------
 #N Geom=AllCheck Guess=TCheck SCRF=Check GenChk RB3LYP/6-31G(d) Freq
 --------------------------------------------------------------------

 Structure from the checkpoint file:  frag1-conf1.chk
 ----------------------------
 Optimization for frag1-conf1
 ----------------------------
 Charge =  0 Multiplicity = 1

                         Standard orientation:
 ---------------------------------------------------------------------
 Center     Atomic      Atomic             Coordinates (Angstroms)
 Number     Number       Type             X           Y           Z
 ---------------------------------------------------------------------
      1          6           0       -1.424837   -0.485200   -0.799050
      2          6           0        1.241150    0.643649   -0.035032
      3          6           0       -2.633703   -1.399611   -0.967407
      4          6           0       -0.533509    2.438150    0.035470
      5          6           0        2.984947   -1.023450   -0.339049
      6          6           0        1.185983   -1.520665    1.256651
      7          6           0       -2.148284    0.012796    1.543322
      8          6           0       -0.117632    1.069296    0.583400
      9          7           0        1.777119   -0.568054    0.335763
     10          7           0       -1.198793    0.072020    0.441104
     11          8           0       -0.665297   -0.272837   -1.737574
     12          8           0        1.847634    1.427406   -0.753477
     13          1           0       -3.576856   -0.858840   -0.828497
     14          1           0       -2.599455   -1.789413   -1.985232
     15          1           0       -2.621559   -2.239911   -0.264041
     16          1           0       -0.661213    2.381068   -1.047156
     17          1           0       -1.473014    2.760632    0.498687
     18          1           0        0.236884    3.183279    0.245084
     19          1           0        3.776937   -1.234356    0.391648
     20          1           0        3.315582   -0.238921   -1.017449
     21          1           0        2.784262   -1.940504   -0.909466
     22          1           0        0.635355   -2.318173    0.736627
     23          1           0        0.508477   -1.032607    1.957246
     24          1           0        1.987309   -1.989157    1.841391
     25          1           0       -1.623471   -0.203611    2.482674
     26          1           0       -2.881884   -0.776025    1.383100
     27          1           0       -2.686805    0.962544    1.669855
     28          1           0        0.047786    1.159894    1.666038
 ---------------------------------------------------------------------

 SCF Done:  E(RB3LYP) =  -574.451645282     A.U. after    1 cycles

 Isotropic polarizability for W=    0.000000      102.07 Bohr**3.
 End of Minotr Frequency-dependent properties file   721 does not exist.

                     1                      2                      3
                     A                      A                      A
 Frequencies --    55.5213                66.1180                79.1720
 Red. masses --     3.0671                 3.0830                 2.8006
 Frc consts  --     0.0056                 0.0079                 0.0103
 IR Inten    --     3.0385                 1.0313                 1.1899

                     4                      5                      6
                     A                      A                      A
 Frequencies --    96.9405               107.1346               113.0639
 Red. masses --     1.7367                 1.9409                 1.5960
 Frc consts  --     0.0096                 0.0131                 0.0120
 IR Inten    --     1.1684                 0.7406                 1.3641

                     7                      8                      9
                     A                      A                      A
 Frequencies --   144.0996               178.3115               180.4634
 Red. masses --     1.6919                 2.6902                 1.4781
 Frc consts  --     0.0207                 0.0504                 0.0284
 IR Inten    --     0.5747                 2.2483                 0.8518

                    10                     11                     12
                     A                      A                      A
 Frequencies --   213.8128               227.1185               241.7290
 Red. masses --     1.3263                 1.5899                 1.3991
 Frc consts  --     0.0357                 0.0483                 0.0482
 IR Inten    --     1.0281                 0.3673                 1.1582

                    13                     14                     15
                     A                      A                      A
 Frequencies --   254.7352               312.3653               347.0672
 Red. masses --     1.9978                 3.7650                 3.0394
 Frc consts  --     0.0764                 0.2164                 0.2157
 IR Inten    --     1.4374                 5.3508                 0.8405

                    16                     17                     18
                     A                      A                      A
 Frequencies --   366.4671               409.7311               418.4723
 Red. masses --     2.6744                 4.4529                 2.6965
 Frc consts  --     0.2116                 0.4404                 0.2782
 IR Inten    --     1.4543                17.1292                 0.5327

                    19                     20                     21
                     A                      A                      A
 Frequencies --   473.7671               521.2657               581.6658
 Red. masses --     3.7768                 3.3959                 3.7397
 Frc consts  --     0.4995                 0.5437                 0.7455
 IR Inten    --    25.4853                 6.1414                 3.7212

                    22                     23                     24
                     A                      A                      A
 Frequencies --   597.5465               608.6377               677.3483
 Red. masses --     4.7431                 3.2679                 5.1536
 Frc consts  --     0.9978                 0.7133                 1.3931
 IR Inten    --     4.4930                13.9681                 7.3322

                    25                     26                     27
                     A                      A                      A
 Frequencies --   758.4343               793.5393               914.9176
 Red. masses --     3.7052                 2.9050                 2.4944
 Frc consts  --     1.2557                 1.0778                 1.2302
 IR Inten    --    10.4816                 4.6548                 0.0758

                    28                     29                     30
                     A                      A                      A
 Frequencies --   973.8215              1019.9584              1048.9637
 Red. masses --     2.6883                 1.6052                 1.6663
 Frc consts  --     1.5021                 0.9839                 1.0803
 IR Inten    --     5.7788                24.5024                24.4901

                    31                     32                     33
                     A                      A                      A
 Frequencies --  1060.7144              1090.6787              1105.3376
 Red. masses --     1.7185                 1.3768                 2.4381
 Frc consts  --     1.1392                 0.9650                 1.7551
 IR Inten    --     3.2708                 7.8585                56.6875

                    34                     35                     36
                     A                      A                      A
 Frequencies --  1125.8736              1137.3136              1158.1561
 Red. masses --     1.6263                 1.2313                 1.3354
 Frc consts  --     1.2146                 0.9384                 1.0554
 IR Inten    --    51.8728                 2.8521                16.5054

                    37                     38                     39
                     A                      A                      A
 Frequencies --  1180.9253              1185.0035              1190.9765
 Red. masses --     1.4339                 2.0673                 2.0514
 Frc consts  --     1.1782                 1.7104                 1.7144
 IR Inten    --     9.1329                43.7749                24.5988

                    40                     41                     42
                     A                      A                      A
 Frequencies --  1229.7691              1293.3973              1335.1795
 Red. masses --     3.9380                 4.9794                 1.8167
 Frc consts  --     3.5089                 4.9078                 1.9081
 IR Inten    --    30.0519                45.1256                45.5466

                    43                     44                     45
                     A                      A                      A
 Frequencies --  1360.9841              1414.0994              1431.2993
 Red. masses --     1.5572                 1.2739                 1.3567
 Frc consts  --     1.6994                 1.5009                 1.6376
 IR Inten    --    59.1653                13.7064                 6.4892

                    46                     47                     48
                     A                      A                      A
 Frequencies --  1432.4276              1451.8135              1457.5481
 Red. masses --     2.3177                 1.2078                 1.7988
 Frc consts  --     2.8018                 1.4999                 2.2516
 IR Inten    --   141.0105                23.3883                80.0484

                    49                     50                     51
                     A                      A                      A
 Frequencies --  1490.1722              1494.8330              1506.1898
 Red. masses --     1.1320                 1.1906                 1.0850
 Frc consts  --     1.4810                 1.5675                 1.4503
 IR Inten    --    19.5093                11.1468                 8.1861

                    52                     53                     54
                     A                      A                      A
 Frequencies --  1510.7037              1514.2054              1518.5001
 Red. masses --     1.0654                 1.0459                 1.1319
 Frc consts  --     1.4326                 1.4129                 1.5378
 IR Inten    --    11.7115                 6.6559                10.2913

                    55                     56                     57
                     A                      A                      A
 Frequencies --  1524.6328              1527.3727              1530.3727
 Red. masses --     1.0549                 1.0553                 1.0490
 Frc consts  --     1.4448                 1.4504                 1.4475
 IR Inten    --     7.4024                13.0276                 2.9739

                    58                     59                     60
                     A                      A                      A
 Frequencies --  1532.9225              1553.2654              1560.0795
 Red. masses --     1.0530                 1.1186                 1.1843
 Frc consts  --     1.4578                 1.5900                 1.6983
 IR Inten    --     7.8499                30.6653                26.9119

                    61                     62                     63
                     A                      A                      A
 Frequencies --  1757.0581              1770.8281              3019.8779
 Red. masses --    10.0170                 9.9651                 1.0452
 Frc consts  --    18.2205                18.4113                 5.6162
 IR Inten    --   115.0170               361.4682                43.2885

                    64                     65                     66
                     A                      A                      A
 Frequencies --  3025.2965              3031.0608              3033.6957
 Red. masses --     1.0533                 1.0416                 1.0718
 Frc consts  --     5.6801                 5.6380                 5.8120
 IR Inten    --    27.5129                75.9926                39.5486

                    67                     68                     69
                     A                      A                      A
 Frequencies --  3057.1266              3065.9494              3072.7104
 Red. masses --     1.0395                 1.0441                 1.0994
 Frc consts  --     5.7241                 5.7828                 6.1158
 IR Inten    --     7.3454                23.6724                52.3428

                    70                     71                     72
                     A                      A                      A
 Frequencies --  3074.4841              3077.2313              3117.5659
 Red. masses --     1.1004                 1.1008                 1.1013
 Frc consts  --     6.1285                 6.1415                 6.3063
 IR Inten    --    69.7341                 3.6578                11.3324

                    73                     74                     75
                     A                      A                      A
 Frequencies --  3143.4546              3167.7759              3173.5590
 Red. masses --     1.0951                 1.0944                 1.1032
 Frc consts  --     6.3753                 6.4707                 6.5466
 IR Inten    --    17.2805                22.1062                 7.9933

                    76                     77                     78
                     A                      A                      A
 Frequencies --  3175.7795              3184.0747              3196.2598
 Red. masses --     1.0994                 1.0937                 1.0952
 Frc consts  --     6.5328                 6.5330                 6.5923
 IR Inten    --     8.6485                13.0441                 1.4067

 - Thermochemistry -
 -------------------
 Temperature   298.150 Kelvin.  Pressure   1.00000 Atm.
 Atom     1 has atomic number  6 and mass  12.00000

 Molecular mass:   172.12118 amu.
 Principal axes and moments of inertia in atomic units:
                           1         2         3
     Eigenvalues --  1461.354922441.114022737.92174
           X            0.99955  -0.02862  -0.00871
           Y            0.02867   0.99957   0.00614
           Z            0.00853  -0.00639   0.99994
 This molecule is an asymmetric top.
 Rotational symmetry number  1.
 Warning -- assumption of classical behavior for rotation
           may cause significant error
 Rotational temperatures (Kelvin)      0.05927     0.03548     0.03163
 Rotational constants (GHZ):           1.23498     0.73931     0.65916
 Zero-point vibrational energy     638989.6 (Joules/Mol)
                                  152.72219 (Kcal/Mol)
 Warning -- explicit consideration of  23 degrees of freedom as
           vibrations may cause significant error
 Vibrational temperatures:     79.88    95.13   113.91   139.48   154.14
          (Kelvin)            162.67   207.33   256.55   259.65   307.63
                              326.77   347.79   366.51   449.42   499.35
                              527.26   589.51   602.09   681.64   749.98
                              836.89   859.73   875.69   974.55  1091.22
                             1141.72  1316.36  1401.11  1467.49  1509.22
                             1526.13  1569.24  1590.33  1619.88  1636.34
                             1666.33  1699.09  1704.95  1713.55  1769.36
                             1860.91  1921.02  1958.15  2034.57  2059.32
                             2060.94  2088.83  2097.08  2144.02  2150.73
                             2167.07  2173.56  2178.60  2184.78  2193.60
                             2197.55  2201.86  2205.53  2234.80  2244.60
                             2528.01  2547.82  4344.93  4352.72  4361.01
                             4364.81  4398.52  4411.21  4420.94  4423.49
                             4427.44  4485.48  4522.72  4557.72  4566.04
                             4569.23  4581.17  4598.70

 Zero-point correction=                           0.243378 (Hartree/Particle)
 Thermal correction to Energy=                    0.258086
 Thermal correction to Enthalpy=                  0.259030
 Thermal correction to Gibbs Free Energy=         0.202106
 Sum of electronic and zero-point Energies=           -574.208267
 Sum of electronic and thermal Energies=              -574.193560
 Sum of electronic and thermal Enthalpies=            -574.192615
 Sum of electronic and thermal Free Energies=         -574.249539

                     E (Thermal)             CV                S
                      KCal/Mol        Cal/Mol-Kelvin    Cal/Mol-Kelvin
 Total                  161.951             51.824            119.807
 Electronic               0.000              0.000              0.000
 Translational            0.889              2.981             41.337
 Rotational               0.889              2.981             30.658
 Vibrational            160.174             45.862             47.812
 Vibration     1          0.596              1.975              4.610
 Vibration     2          0.598              1.970              4.266
 Vibration     3          0.600              1.963              3.911
 Vibration     4          0.603              1.951              3.515
 Vibration     5          0.606              1.944              3.320
 Vibration     6          0.607              1.939              3.216
 Vibration     7          0.616              1.909              2.749
 Vibration     8          0.629              1.869              2.346
 Vibration     9          0.629              1.866              2.324
 Vibration    10          0.644              1.820              2.011
 Vibration    11          0.651              1.800              1.902
 Vibration    12          0.658              1.776              1.790
 Vibration    13          0.665              1.755              1.698
 Vibration    14          0.701              1.650              1.350
 Vibration    15          0.725              1.581              1.179
 Vibration    16          0.739              1.541              1.095
 Vibration    17          0.774              1.449              0.928
 Vibration    18          0.781              1.430              0.897
 Vibration    19          0.831              1.308              0.727
 Vibration    20          0.876              1.203              0.607
 Vibration    21          0.938              1.071              0.482
 Vibration    22          0.955              1.037              0.454
 Vibration    23          0.968              1.014              0.435

 Optimization completed.
    -- Stationary point found.
 Normal termination of Gaussian 09 at Mon Feb 26 22:50:39 2018.
