 Gaussian 09, Revision C.01,
 Gaussian 09:  AM64L-G09RevC.01 23-Sep-2011

 ---------------------------------------------------------
 #B3LYP/6-31G* Integral=(Grid=UltraFine) freq Opt pop=none
 ---------------------------------------------------------

 99/9=1/99;
 -----------------------------
 Optimization for frag53-conf0
 -----------------------------
 Charge =  0 Multiplicity = 1

 SCF Done:  E(RB3LYP) =  -550.970614113     A.U. after   15 cycles
 SCF Done:  E(RB3LYP) =  -550.973562038     A.U. after   12 cycles
 SCF Done:  E(RB3LYP) =  -550.973967577     A.U. after   12 cycles
 SCF Done:  E(RB3LYP) =  -550.974081644     A.U. after   12 cycles
 SCF Done:  E(RB3LYP) =  -550.974117927     A.U. after   12 cycles
 SCF Done:  E(RB3LYP) =  -550.974167341     A.U. after   12 cycles
 SCF Done:  E(RB3LYP) =  -550.974242536     A.U. after   15 cycles
 SCF Done:  E(RB3LYP) =  -550.974312762     A.U. after   15 cycles
 SCF Done:  E(RB3LYP) =  -550.974441485     A.U. after   15 cycles
 SCF Done:  E(RB3LYP) =  -550.974707724     A.U. after   15 cycles
 SCF Done:  E(RB3LYP) =  -550.976385089     A.U. after   12 cycles
 SCF Done:  E(RB3LYP) =  -550.976391092     A.U. after   10 cycles
 SCF Done:  E(RB3LYP) =  -550.976394904     A.U. after   10 cycles
 SCF Done:  E(RB3LYP) =  -550.976396914     A.U. after    9 cycles
 SCF Done:  E(RB3LYP) =  -550.976400170     A.U. after   10 cycles
 SCF Done:  E(RB3LYP) =  -550.976402626     A.U. after    9 cycles
 SCF Done:  E(RB3LYP) =  -550.976404188     A.U. after    9 cycles
 SCF Done:  E(RB3LYP) =  -550.976404457     A.U. after    8 cycles
 SCF Done:  E(RB3LYP) =  -550.976404537     A.U. after    7 cycles
 Optimization completed.
    -- Stationary point found.
 Normal termination of Gaussian 09 at Fri Feb 16 22:21:06 2018.

 --------------------------------------------------------------------
 #N Geom=AllCheck Guess=TCheck SCRF=Check GenChk RB3LYP/6-31G(d) Freq
 --------------------------------------------------------------------

 Structure from the checkpoint file:  frag53-conf0.chk
 -----------------------------
 Optimization for frag53-conf0
 -----------------------------
 Charge =  0 Multiplicity = 1

                         Standard orientation:
 ---------------------------------------------------------------------
 Center     Atomic      Atomic             Coordinates (Angstroms)
 Number     Number       Type             X           Y           Z
 ---------------------------------------------------------------------
      1          6           0        0.583335    0.733485   -0.568928
      2          6           0        1.841628    1.229910   -0.277877
      3          6           0        1.370048   -1.426977    0.054026
      4          6           0        0.315788   -0.637178   -0.400103
      5          6           0        2.832737    0.333254    0.178377
      6          6           0       -2.885686    0.264254    0.052541
      7          6           0       -3.847766    0.598853    1.183413
      8          6           0       -1.048463   -1.221528   -0.691381
      9          7           0        2.599467   -0.977064    0.335106
     10          7           0        4.094808    0.778789    0.535199
     11          7           0       -2.084821   -0.824401    0.263354
     12          8           0       -2.848604    0.925838   -0.980300
     13          1           0       -0.203430    1.392599   -0.926679
     14          1           0        2.068137    2.286421   -0.394203
     15          1           0        1.223501   -2.499341    0.193387
     16          1           0       -3.597340    1.587913    1.580722
     17          1           0       -4.860330    0.659253    0.774082
     18          1           0       -3.837392   -0.126285    2.003248
     19          1           0       -1.408005   -0.896050   -1.670943
     20          1           0       -0.993354   -2.316000   -0.698685
     21          1           0        4.433164    1.610422    0.070306
     22          1           0        4.780251    0.037167    0.606222
     23          1           0       -2.052278   -1.228507    1.188909
 ---------------------------------------------------------------------

 SCF Done:  E(RB3LYP) =  -550.976404537     A.U. after    1 cycles

 Isotropic polarizability for W=    0.000000      104.11 Bohr**3.
 End of Minotr Frequency-dependent properties file   721 does not exist.

                     1                      2                      3
                     A                      A                      A
 Frequencies --    33.9595                48.9894                56.6763
 Red. masses --     3.1168                 1.6652                 4.5742
 Frc consts  --     0.0021                 0.0024                 0.0087
 IR Inten    --     1.6487                 4.8529                15.3383

                     4                      5                      6
                     A                      A                      A
 Frequencies --    66.0379               130.6129               207.1659
 Red. masses --     2.1667                 4.1057                 5.8296
 Frc consts  --     0.0056                 0.0413                 0.1474
 IR Inten    --     1.3396                 3.0857                 3.4926

                     7                      8                      9
                     A                      A                      A
 Frequencies --   241.2511               323.6608               348.6576
 Red. masses --     5.1038                 2.1874                 3.3010
 Frc consts  --     0.1750                 0.1350                 0.2364
 IR Inten    --     4.3248                 6.3196                10.5576

                    10                     11                     12
                     A                      A                      A
 Frequencies --   376.8211               419.7231               426.3471
 Red. masses --     1.1635                 2.6809                 3.4077
 Frc consts  --     0.0973                 0.2783                 0.3650
 IR Inten    --    47.7680                 3.5584                 4.2868

                    13                     14                     15
                     A                      A                      A
 Frequencies --   453.5870               464.5137               511.6508
 Red. masses --     1.3107                 3.0378                 2.2689
 Frc consts  --     0.1589                 0.3862                 0.3499
 IR Inten    --   116.2064                11.7140                49.5933

                    16                     17                     18
                     A                      A                      A
 Frequencies --   558.0665               609.0891               616.9190
 Red. masses --     2.3014                 2.5488                 2.4162
 Frc consts  --     0.4223                 0.5571                 0.5418
 IR Inten    --   238.2872                65.4897                19.2426

                    19                     20                     21
                     A                      A                      A
 Frequencies --   656.0637               661.0545               761.0707
 Red. masses --     3.0552                 5.5046                 4.6012
 Frc consts  --     0.7748                 1.4173                 1.5703
 IR Inten    --     5.2965                 5.3632                 2.6928

                    22                     23                     24
                     A                      A                      A
 Frequencies --   804.6404               844.3181               855.2489
 Red. masses --     4.7986                 1.6164                 2.6159
 Frc consts  --     1.8305                 0.6789                 1.1273
 IR Inten    --    31.2681                25.3835                 1.0581

                    25                     26                     27
                     A                      A                      A
 Frequencies --   878.0388               953.5018               996.6329
 Red. masses --     5.2475                 1.4173                 1.5615
 Frc consts  --     2.3836                 0.7592                 0.9138
 IR Inten    --     3.6371                 3.1501                 1.6026

                    28                     29                     30
                     A                      A                      A
 Frequencies --  1006.0819              1026.4635              1046.8900
 Red. masses --     1.4066                 2.8013                 2.7409
 Frc consts  --     0.8389                 1.7390                 1.7699
 IR Inten    --     2.6969                 0.2871                15.8209

                    31                     32                     33
                     A                      A                      A
 Frequencies --  1067.5488              1094.6594              1097.5924
 Red. masses --     1.7045                 2.4238                 1.7521
 Frc consts  --     1.1445                 1.7112                 1.2436
 IR Inten    --     7.9047                24.8090                 3.3545

                    34                     35                     36
                     A                      A                      A
 Frequencies --  1178.6118              1249.0208              1268.1722
 Red. masses --     1.2079                 2.8421                 1.5285
 Frc consts  --     0.9886                 2.6123                 1.4483
 IR Inten    --    18.5399                 5.3989                43.9131

                    37                     38                     39
                     A                      A                      A
 Frequencies --  1294.7397              1346.2682              1353.8326
 Red. masses --     1.8438                 3.2043                 2.3462
 Frc consts  --     1.8210                 3.4217                 2.5336
 IR Inten    --   111.0553                16.4846                69.6327

                    40                     41                     42
                     A                      A                      A
 Frequencies --  1367.7033              1400.0873              1425.8946
 Red. masses --     1.5046                 1.3280                 1.2638
 Frc consts  --     1.6582                 1.5337                 1.5140
 IR Inten    --     0.5454                40.7726                21.1213

                    43                     44                     45
                     A                      A                      A
 Frequencies --  1458.3862              1498.4627              1501.3530
 Red. masses --     3.0206                 1.0992                 1.0521
 Frc consts  --     3.7852                 1.4542                 1.3973
 IR Inten    --    57.9213                19.1455                 2.8969

                    46                     47                     48
                     A                      A                      A
 Frequencies --  1515.3307              1547.0513              1555.3601
 Red. masses --     1.0682                 2.6056                 1.8956
 Frc consts  --     1.4451                 3.6743                 2.7018
 IR Inten    --    18.0842                91.1360               249.7585

                    49                     50                     51
                     A                      A                      A
 Frequencies --  1620.9211              1659.4458              1680.4189
 Red. masses --     5.8430                 1.7833                 2.3076
 Frc consts  --     9.0450                 2.8934                 3.8393
 IR Inten    --    24.9098                 7.1461               279.3473

                    52                     53                     54
                     A                      A                      A
 Frequencies --  1774.7639              3063.8222              3068.1387
 Red. masses --     8.9087                 1.0357                 1.0651
 Frc consts  --    16.5327                 5.7281                 5.9075
 IR Inten    --   204.3551                 8.6710                32.3317

                    55                     56                     57
                     A                      A                      A
 Frequencies --  3130.8934              3136.1426              3143.6988
 Red. masses --     1.0995                 1.1028                 1.0898
 Frc consts  --     6.3499                 6.3903                 6.3459
 IR Inten    --     1.0996                14.1868                39.8072

                    58                     59                     60
                     A                      A                      A
 Frequencies --  3145.0306              3187.8918              3208.3749
 Red. masses --     1.1021                 1.0888                 1.0950
 Frc consts  --     6.4227                 6.5196                 6.6408
 IR Inten    --    11.4848                11.4322                 4.4887

                    61                     62                     63
                     A                      A                      A
 Frequencies --  3564.1899              3620.1999              3675.1723
 Red. masses --     1.0469                 1.0776                 1.1000
 Frc consts  --     7.8357                 8.3210                 8.7539
 IR Inten    --    33.9722                15.1755                19.5282

 - Thermochemistry -
 -------------------
 Temperature   298.150 Kelvin.  Pressure   1.00000 Atm.
 Atom     1 has atomic number  6 and mass  12.00000

 Molecular mass:   165.09021 amu.
 Principal axes and moments of inertia in atomic units:
                           1         2         3
     Eigenvalues --   767.629934099.934554405.35297
           X            0.99989   0.00703  -0.01329
           Y           -0.00675   0.99976   0.02091
           Z            0.01343  -0.02082   0.99969
 This molecule is an asymmetric top.
 Rotational symmetry number  1.
 Warning -- assumption of classical behavior for rotation
           may cause significant error
 Rotational temperatures (Kelvin)      0.11283     0.02113     0.01966
 Rotational constants (GHZ):           2.35106     0.44019     0.40967
 Zero-point vibrational energy     498142.4 (Joules/Mol)
                                  119.05890 (Kcal/Mol)
 Warning -- explicit consideration of  18 degrees of freedom as
           vibrations may cause significant error
 Vibrational temperatures:     48.86    70.48    81.54    95.01   187.92
          (Kelvin)            298.07   347.11   465.68   501.64   542.16
                              603.89   613.42   652.61   668.33   736.15
                              802.93   876.34   887.61   943.93   951.11
                             1095.01  1157.70  1214.78  1230.51  1263.30
                             1371.87  1433.93  1447.53  1476.85  1506.24
                             1535.96  1574.97  1579.19  1695.76  1797.06
                             1824.61  1862.84  1936.98  1947.86  1967.82
                             2014.41  2051.54  2098.29  2155.95  2160.11
                             2180.22  2225.86  2237.81  2332.14  2387.57
                             2417.74  2553.49  4408.15  4414.36  4504.65
                             4512.20  4523.08  4524.99  4586.66  4616.13
                             5128.07  5208.65  5287.75

 Zero-point correction=                           0.189732 (Hartree/Particle)
 Thermal correction to Energy=                    0.201513
 Thermal correction to Enthalpy=                  0.202457
 Thermal correction to Gibbs Free Energy=         0.150302
 Sum of electronic and zero-point Energies=           -550.786672
 Sum of electronic and thermal Energies=              -550.774892
 Sum of electronic and thermal Enthalpies=            -550.773948
 Sum of electronic and thermal Free Energies=         -550.826102

                     E (Thermal)             CV                S
                      KCal/Mol        Cal/Mol-Kelvin    Cal/Mol-Kelvin
 Total                  126.451             43.465            109.769
 Electronic               0.000              0.000              0.000
 Translational            0.889              2.981             41.212
 Rotational               0.889              2.981             31.006
 Vibrational            124.674             37.503             37.550
 Vibration     1          0.594              1.983              5.584
 Vibration     2          0.595              1.978              4.858
 Vibration     3          0.596              1.975              4.570
 Vibration     4          0.597              1.970              4.268
 Vibration     5          0.612              1.923              2.937
 Vibration     6          0.641              1.830              2.069
 Vibration     7          0.658              1.777              1.794
 Vibration     8          0.708              1.628              1.292
 Vibration     9          0.726              1.578              1.172
 Vibration    10          0.747              1.520              1.052
 Vibration    11          0.782              1.427              0.893
 Vibration    12          0.788              1.413              0.871
 Vibration    13          0.812              1.353              0.785
 Vibration    14          0.822              1.329              0.753
 Vibration    15          0.867              1.224              0.630
 Vibration    16          0.914              1.122              0.528
 Vibration    17          0.968              1.013              0.434
 Vibration    18          0.977              0.996              0.421

 Normal termination of Gaussian 09 at Fri Feb 16 22:38:49 2018.
