 Gaussian 09, Revision C.01,
 Gaussian 09:  AM64L-G09RevC.01 23-Sep-2011

 ----------------------------------------------------------------------
 #HF/6-31G* Geom=AllCheck Guess=Read Pop=(MK,ReadRadii) Integral=(Grid=
 UltraFine) iop(6/33=2)
 ----------------------------------------------------------------------

 Structure from the checkpoint file:  frag53-conf0.chk
 -----------------------------
 Optimization for frag53-conf0
 -----------------------------
 Charge =  0 Multiplicity = 1

                         Standard orientation:
 ---------------------------------------------------------------------
 Center     Atomic      Atomic             Coordinates (Angstroms)
 Number     Number       Type             X           Y           Z
 ---------------------------------------------------------------------
      1          6           0        0.583335    0.733485   -0.568928
      2          6           0        1.841628    1.229910   -0.277877
      3          6           0        1.370048   -1.426977    0.054026
      4          6           0        0.315788   -0.637178   -0.400103
      5          6           0        2.832737    0.333254    0.178377
      6          6           0       -2.885686    0.264254    0.052541
      7          6           0       -3.847766    0.598853    1.183413
      8          6           0       -1.048463   -1.221528   -0.691381
      9          7           0        2.599467   -0.977064    0.335106
     10          7           0        4.094808    0.778789    0.535199
     11          7           0       -2.084821   -0.824401    0.263354
     12          8           0       -2.848604    0.925838   -0.980300
     13          1           0       -0.203430    1.392599   -0.926679
     14          1           0        2.068137    2.286421   -0.394203
     15          1           0        1.223501   -2.499341    0.193387
     16          1           0       -3.597340    1.587913    1.580722
     17          1           0       -4.860330    0.659253    0.774082
     18          1           0       -3.837392   -0.126285    2.003248
     19          1           0       -1.408005   -0.896050   -1.670943
     20          1           0       -0.993354   -2.316000   -0.698685
     21          1           0        4.433164    1.610422    0.070306
     22          1           0        4.780251    0.037167    0.606222
     23          1           0       -2.052278   -1.228507    1.188909
 ---------------------------------------------------------------------

 SCF Done:  E(RHF) =  -547.582791255     A.U. after   14 cycles

 The electronic state is 1-A.
 Alpha  occ. eigenvalues --  -20.52196 -15.59049 -15.56978 -15.55190 -11.35586
 Alpha  occ. eigenvalues --  -11.31518 -11.27279 -11.27159 -11.25203 -11.24032
 Alpha  occ. eigenvalues --  -11.23090 -11.22902  -1.37330  -1.27559  -1.22811
 Alpha  occ. eigenvalues --   -1.18137  -1.08565  -1.03120  -0.99835  -0.92133
 Alpha  occ. eigenvalues --   -0.85840  -0.82066  -0.78550  -0.71401  -0.70390
 Alpha  occ. eigenvalues --   -0.68511  -0.65416  -0.64503  -0.62493  -0.60988
 Alpha  occ. eigenvalues --   -0.59323  -0.57725  -0.56812  -0.55947  -0.55026
 Alpha  occ. eigenvalues --   -0.53985  -0.53241  -0.49855  -0.45139  -0.41923
 Alpha  occ. eigenvalues --   -0.41428  -0.38767  -0.37159  -0.29965
 Alpha virt. eigenvalues --    0.12744   0.15416   0.19580   0.21611   0.23275
 Alpha virt. eigenvalues --    0.25948   0.26762   0.27839   0.30302   0.30834
 Alpha virt. eigenvalues --    0.31317   0.32959   0.33886   0.34511   0.35401

 Mulliken atomic charges:
              1
     1  C   -0.145902
     2  C   -0.295474
     3  C    0.061289
     4  C   -0.068712
     5  C    0.573820
     6  C    0.761689
     7  C   -0.575371
     8  C   -0.164738
     9  N   -0.619477
    10  N   -0.896885
    11  N   -0.787469
    12  O   -0.636135
    13  H    0.257459
    14  H    0.205775
    15  H    0.194218
    16  H    0.205873
    17  H    0.210826
    18  H    0.168897
    19  H    0.231576
    20  H    0.186442
    21  H    0.367311
    22  H    0.382566
    23  H    0.382422
 Sum of Mulliken atomic charges =   0.00000

 Dipole moment (field-independent basis, Debye):
    X=              0.3953    Y=             -0.5713    Z=              1.6497  Tot=              1.7900
 Quadrupole moment (field-independent basis, Debye-Ang):
   XX=            -63.9062   YY=            -67.0734   ZZ=            -74.0597
   XY=             10.9311   XZ=            -13.6750   YZ=              0.4320

 Normal termination of Gaussian 09 at Sat Feb 17 21:06:08 2018.
