 Gaussian 09, Revision C.01,
 Gaussian 09:  AM64L-G09RevC.01 23-Sep-2011

 ---------------------------------------------------------
 #B3LYP/6-31G* Integral=(Grid=UltraFine) freq Opt pop=none
 ---------------------------------------------------------

 99/9=1/99;
 -----------------------------
 Optimization for frag45-conf2
 -----------------------------
 Charge =  0 Multiplicity = 1

 SCF Done:  E(RB3LYP) =  -1398.76035918     A.U. after   15 cycles
 SCF Done:  E(RB3LYP) =  -1398.76255861     A.U. after   13 cycles
 SCF Done:  E(RB3LYP) =  -1398.76280018     A.U. after   12 cycles
 SCF Done:  E(RB3LYP) =  -1398.76285144     A.U. after   11 cycles
 SCF Done:  E(RB3LYP) =  -1398.76287590     A.U. after   11 cycles
 SCF Done:  E(RB3LYP) =  -1398.76290891     A.U. after   10 cycles
 SCF Done:  E(RB3LYP) =  -1398.76299615     A.U. after   12 cycles
 SCF Done:  E(RB3LYP) =  -1398.76306208     A.U. after   12 cycles
 SCF Done:  E(RB3LYP) =  -1398.76327728     A.U. after   15 cycles
 SCF Done:  E(RB3LYP) =  -1398.76336431     A.U. after   13 cycles
 SCF Done:  E(RB3LYP) =  -1398.76348801     A.U. after   13 cycles
 SCF Done:  E(RB3LYP) =  -1398.76359337     A.U. after   12 cycles
 SCF Done:  E(RB3LYP) =  -1398.76361669     A.U. after   12 cycles
 SCF Done:  E(RB3LYP) =  -1398.76361840     A.U. after   10 cycles
 SCF Done:  E(RB3LYP) =  -1398.76361970     A.U. after    8 cycles
 SCF Done:  E(RB3LYP) =  -1398.76362579     A.U. after   10 cycles
 SCF Done:  E(RB3LYP) =  -1398.76362830     A.U. after   10 cycles
 SCF Done:  E(RB3LYP) =  -1398.76362943     A.U. after    9 cycles
 SCF Done:  E(RB3LYP) =  -1398.76362951     A.U. after    8 cycles
 Optimization completed.
    -- Stationary point found.
 Normal termination of Gaussian 09 at Fri Feb 16 21:23:02 2018.

 --------------------------------------------------------------------
 #N Geom=AllCheck Guess=TCheck SCRF=Check GenChk RB3LYP/6-31G(d) Freq
 --------------------------------------------------------------------

 Structure from the checkpoint file:  frag45-conf2.chk
 -----------------------------
 Optimization for frag45-conf2
 -----------------------------
 Charge =  0 Multiplicity = 1

                         Standard orientation:
 ---------------------------------------------------------------------
 Center     Atomic      Atomic             Coordinates (Angstroms)
 Number     Number       Type             X           Y           Z
 ---------------------------------------------------------------------
      1          6           0        2.671355    1.064471    0.440360
      2          6           0        1.489528    1.801686    0.385331
      3          6           0        1.469513   -0.871342   -0.384638
      4          6           0        0.272725   -0.146183   -0.442838
      5          6           0        2.649429   -0.272297    0.051276
      6          6           0        0.308675    1.201744   -0.049885
      7          6           0       -3.265472   -0.868950    0.067034
      8          6           0       -4.082010   -1.141258    1.321651
      9          6           0       -0.991816   -0.836769   -0.909254
     10          7           0       -1.917091   -1.088637    0.186556
     11          8           0       -3.779061   -0.473987   -0.970760
     12         17           0        4.127263   -1.219816    0.109605
     13         17           0       -1.144629    2.184397   -0.113741
     14          1           0        3.593550    1.525146    0.777184
     15          1           0        1.484357    2.846617    0.676361
     16          1           0        1.476682   -1.913693   -0.687974
     17          1           0       -4.531152   -0.201168    1.657658
     18          1           0       -4.899517   -1.822479    1.068976
     19          1           0       -3.501445   -1.568556    2.145482
     20          1           0       -1.542301   -0.228970   -1.632364
     21          1           0       -0.719964   -1.776238   -1.408716
     22          1           0       -1.544426   -1.432795    1.059662
 ---------------------------------------------------------------------

 SCF Done:  E(RB3LYP) =  -1398.76362951     A.U. after    1 cycles

 Isotropic polarizability for W=    0.000000      122.60 Bohr**3.
 End of Minotr Frequency-dependent properties file   721 does not exist.

                     1                      2                      3
                     A                      A                      A
 Frequencies --    28.8451                35.7128                47.0772
 Red. masses --     3.5779                 4.3234                 1.5309
 Frc consts  --     0.0018                 0.0032                 0.0020
 IR Inten    --     0.5831                 4.2684                 6.0785

                     4                      5                      6
                     A                      A                      A
 Frequencies --    71.1651                98.1498               163.5203
 Red. masses --     2.6611                 9.9155                 6.7676
 Frc consts  --     0.0079                 0.0563                 0.1066
 IR Inten    --     4.6602                 1.0480                 1.8353

                     7                      8                      9
                     A                      A                      A
 Frequencies --   182.0094               213.7981               269.2414
 Red. masses --     8.6436                 6.6581                 7.3164
 Frc consts  --     0.1687                 0.1793                 0.3125
 IR Inten    --     4.7830                 4.5323                 1.9766

                    10                     11                     12
                     A                      A                      A
 Frequencies --   284.1856               321.0866               330.4801
 Red. masses --     2.6860                 6.1377                23.4007
 Frc consts  --     0.1278                 0.3728                 1.5058
 IR Inten    --     4.5819                 0.1158                 0.0769

                    13                     14                     15
                     A                      A                      A
 Frequencies --   414.7200               418.1704               446.7322
 Red. masses --     2.7406                 1.3304                 3.0996
 Frc consts  --     0.2777                 0.1371                 0.3645
 IR Inten    --    14.2290                78.5229                 5.2453

                    16                     17                     18
                     A                      A                      A
 Frequencies --   476.4683               537.9766               570.6235
 Red. masses --     3.4363                 4.8177                 6.8584
 Frc consts  --     0.4596                 0.8215                 1.3157
 IR Inten    --    18.9975                21.9768                15.2340

                    19                     20                     21
                     A                      A                      A
 Frequencies --   613.4761               632.7066               636.5122
 Red. masses --     3.9123                 2.7372                 4.4346
 Frc consts  --     0.8675                 0.6456                 1.0586
 IR Inten    --     6.8968                 0.3232                 1.0001

                    22                     23                     24
                     A                      A                      A
 Frequencies --   713.9381               737.1347               829.2565
 Red. masses --     5.6845                 5.2391                 1.3428
 Frc consts  --     1.7071                 1.6773                 0.5440
 IR Inten    --     0.9279                 1.8954                26.8103

                    25                     26                     27
                     A                      A                      A
 Frequencies --   887.8388               898.8758               922.5060
 Red. masses --     3.4525                 1.7228                 2.4926
 Frc consts  --     1.6034                 0.8201                 1.2498
 IR Inten    --    17.4752                14.6676                 6.4659

                    28                     29                     30
                     A                      A                      A
 Frequencies --   956.2929              1003.8802              1033.9459
 Red. masses --     1.3028                 1.6453                 2.4181
 Frc consts  --     0.7020                 0.9769                 1.5231
 IR Inten    --     0.0417                12.0163                13.4379

                    31                     32                     33
                     A                      A                      A
 Frequencies --  1063.4143              1069.1284              1119.4974
 Red. masses --     3.8920                 2.0761                 3.6706
 Frc consts  --     2.5932                 1.3982                 2.7104
 IR Inten    --    39.1801                30.8139                 3.6118

                    34                     35                     36
                     A                      A                      A
 Frequencies --  1127.0135              1167.9283              1228.9598
 Red. masses --     2.1305                 1.4871                 2.3537
 Frc consts  --     1.5944                 1.1952                 2.0945
 IR Inten    --    51.5883                 2.5059                16.4407

                    37                     38                     39
                     A                      A                      A
 Frequencies --  1251.6685              1271.8590              1303.4611
 Red. masses --     1.3204                 1.8767                 1.3705
 Frc consts  --     1.2188                 1.7887                 1.3719
 IR Inten    --     2.1112               142.6297                29.1681

                    40                     41                     42
                     A                      A                      A
 Frequencies --  1337.2676              1390.7155              1426.1809
 Red. masses --     5.2257                 1.4101                 1.2838
 Frc consts  --     5.5059                 1.6069                 1.5384
 IR Inten    --     6.4066                 4.6929                28.9533

                    43                     44                     45
                     A                      A                      A
 Frequencies --  1440.7845              1500.7356              1510.9343
 Red. masses --     2.8712                 1.0472                 2.2863
 Frc consts  --     3.5116                 1.3897                 3.0753
 IR Inten    --    14.5804                 8.9449                89.5193

                    46                     47                     48
                     A                      A                      A
 Frequencies --  1515.9260              1532.9330              1548.9924
 Red. masses --     1.0738                 1.1271                 1.8998
 Frc consts  --     1.4539                 1.5605                 2.6857
 IR Inten    --    24.8088                10.9011               267.6920

                    49                     50                     51
                     A                      A                      A
 Frequencies --  1616.6498              1640.2736              1789.6879
 Red. masses --     6.5650                 6.6884                 9.3568
 Frc consts  --    10.1091                10.6024                17.6577
 IR Inten    --     3.8191                 6.4594               249.6863

                    52                     53                     54
                     A                      A                      A
 Frequencies --  3040.3779              3064.3888              3127.3265
 Red. masses --     1.0709                 1.0359                 1.0923
 Frc consts  --     5.8324                 5.7314                 6.2940
 IR Inten    --    37.6613                 8.6597                 8.5751

                    55                     56                     57
                     A                      A                      A
 Frequencies --  3137.2252              3145.9961              3211.2348
 Red. masses --     1.1028                 1.1018                 1.0911
 Frc consts  --     6.3951                 6.4252                 6.6289
 IR Inten    --    14.5327                 9.7565                 1.8985

                    58                     59                     60
                     A                      A                      A
 Frequencies --  3219.3684              3232.9428              3630.4324
 Red. masses --     1.0888                 1.0955                 1.0779
 Frc consts  --     6.6489                 6.7459                 8.3701
 IR Inten    --     0.6664                 1.5845                16.7179

 - Thermochemistry -
 -------------------
 Temperature   298.150 Kelvin.  Pressure   1.00000 Atm.
 Atom     1 has atomic number  6 and mass  12.00000

 Molecular mass:   217.00612 amu.
 Principal axes and moments of inertia in atomic units:
                           1         2         3
     Eigenvalues --  1599.667595846.654276936.69523
           X            0.99954   0.02817  -0.01086
           Y           -0.02817   0.99960   0.00018
           Z            0.01086   0.00013   0.99994
 This molecule is an asymmetric top.
 Rotational symmetry number  1.
 Warning -- assumption of classical behavior for rotation
           may cause significant error
 Rotational temperatures (Kelvin)      0.05414     0.01481     0.01249
 Rotational constants (GHZ):           1.12820     0.30868     0.26017
 Zero-point vibrational energy     433285.2 (Joules/Mol)
                                  103.55765 (Kcal/Mol)
 Warning -- explicit consideration of  19 degrees of freedom as
           vibrations may cause significant error
 Vibrational temperatures:     41.50    51.38    67.73   102.39   141.22
          (Kelvin)            235.27   261.87   307.61   387.38   408.88
                              461.97   475.49   596.69   601.65   642.75
                              685.53   774.03   821.00   882.65   910.32
                              915.80  1027.20  1060.57  1193.11  1277.40
                             1293.28  1327.28  1375.89  1444.36  1487.62
                             1530.01  1538.24  1610.71  1621.52  1680.39
                             1768.20  1800.87  1829.92  1875.39  1924.03
                             2000.93  2051.95  2072.96  2159.22  2173.89
                             2181.08  2205.55  2228.65  2326.00  2359.98
                             2574.96  4374.42  4408.97  4499.52  4513.76
                             4526.38  4620.24  4631.95  4651.48  5223.38

 Zero-point correction=                           0.165030 (Hartree/Particle)
 Thermal correction to Energy=                    0.178094
 Thermal correction to Enthalpy=                  0.179038
 Thermal correction to Gibbs Free Energy=         0.122668
 Sum of electronic and zero-point Energies=          -1398.598600
 Sum of electronic and thermal Energies=             -1398.585535
 Sum of electronic and thermal Enthalpies=           -1398.584591
 Sum of electronic and thermal Free Energies=        -1398.640961

                     E (Thermal)             CV                S
                      KCal/Mol        Cal/Mol-Kelvin    Cal/Mol-Kelvin
 Total                  111.756             46.532            118.641
 Electronic               0.000              0.000              0.000
 Translational            0.889              2.981             42.027
 Rotational               0.889              2.981             32.539
 Vibrational            109.978             40.570             44.074
 Vibration     1          0.593              1.984              5.907
 Vibration     2          0.594              1.982              5.484
 Vibration     3          0.595              1.979              4.937
 Vibration     4          0.598              1.968              4.121
 Vibration     5          0.604              1.950              3.491
 Vibration     6          0.623              1.887              2.509
 Vibration     7          0.630              1.864              2.308
 Vibration     8          0.644              1.820              2.011
 Vibration     9          0.674              1.730              1.601
 Vibration    10          0.683              1.703              1.508
 Vibration    11          0.707              1.633              1.305
 Vibration    12          0.713              1.615              1.258
 Vibration    13          0.778              1.438              0.910
 Vibration    14          0.781              1.431              0.898
 Vibration    15          0.806              1.368              0.806
 Vibration    16          0.833              1.302              0.720
 Vibration    17          0.893              1.166              0.570
 Vibration    18          0.927              1.095              0.503
 Vibration    19          0.973              1.003              0.427

 Optimization completed.
    -- Stationary point found.
 Normal termination of Gaussian 09 at Fri Feb 16 21:38:41 2018.
