 Gaussian 09, Revision C.01,
 Gaussian 09:  AM64L-G09RevC.01 23-Sep-2011

 ----------------------------------------------------------------------
 #HF/6-31G* Geom=AllCheck Guess=Read Pop=(MK,ReadRadii) Integral=(Grid=
 UltraFine) iop(6/33=2)
 ----------------------------------------------------------------------

 Structure from the checkpoint file:  frag31-conf0.chk
 -----------------------------
 Optimization for frag31-conf0
 -----------------------------
 Charge =  1 Multiplicity = 1

                         Standard orientation:
 ---------------------------------------------------------------------
 Center     Atomic      Atomic             Coordinates (Angstroms)
 Number     Number       Type             X           Y           Z
 ---------------------------------------------------------------------
      1          6           0       -2.161036   -1.759688    0.255090
      2          6           0       -2.904809   -0.699442    0.777270
      3          6           0       -1.000038   -1.480029   -0.455862
      4          6           0       -2.456757    0.589022    0.569911
      5          6           0       -0.572876   -0.167385   -0.650014
      6          6           0        2.293566   -0.003275    0.369721
      7          6           0        3.603846   -0.539884    0.896225
      8          6           0       -0.882256    2.263011   -0.246781
      9          6           0        0.690138    0.101491   -1.458069
     10          7           0       -1.319981    0.847215   -0.128763
     11          7           0        1.854373   -0.504729   -0.833960
     12          8           0        1.619940    0.836356    0.960172
     13          1           0       -2.484562   -2.785885    0.397478
     14          1           0       -3.817540   -0.860544    1.339190
     15          1           0       -0.395889   -2.279670   -0.869865
     16          1           0       -2.982813    1.453065    0.955168
     17          1           0        4.361122    0.248919    0.829654
     18          1           0        3.484513   -0.787845    1.953990
     19          1           0        3.962239   -1.419584    0.354892
     20          1           0        0.119587    2.336176    0.179452
     21          1           0       -0.895075    2.571509   -1.293570
     22          1           0       -1.576633    2.884176    0.316418
     23          1           0        0.560579   -0.355512   -2.443929
     24          1           0        0.845894    1.170948   -1.609540
     25          1           0        2.459643   -1.086930   -1.396603
 ---------------------------------------------------------------------

 SCF Done:  E(RHF) =  -531.961866266     A.U. after   14 cycles

 The electronic state is 1-A.
 Alpha  occ. eigenvalues --  -20.65968 -15.83922 -15.73334 -11.48773 -11.48661
 Alpha  occ. eigenvalues --  -11.47471 -11.44039 -11.43763 -11.42258 -11.41397
 Alpha  occ. eigenvalues --  -11.41314 -11.34990  -1.51455  -1.49820  -1.37135
 Alpha  occ. eigenvalues --   -1.28505  -1.24068  -1.14675  -1.13679  -1.09028
 Alpha  occ. eigenvalues --   -1.04968  -1.00352  -0.92826  -0.88298  -0.86781
 Alpha  occ. eigenvalues --   -0.84012  -0.82742  -0.79685  -0.78990  -0.78597
 Alpha  occ. eigenvalues --   -0.77968  -0.73469  -0.72223  -0.71535  -0.70873
 Alpha  occ. eigenvalues --   -0.69482  -0.68950  -0.68559  -0.66839  -0.63053
 Alpha  occ. eigenvalues --   -0.56446  -0.55808  -0.53927  -0.51253
 Alpha virt. eigenvalues --   -0.08110  -0.03970   0.05831   0.07775   0.08824
 Alpha virt. eigenvalues --    0.10369   0.12736   0.14087   0.15021   0.16555
 Alpha virt. eigenvalues --    0.16631   0.17546   0.17834   0.19780   0.19990

 Mulliken atomic charges:
              1
     1  C   -0.087003
     2  C   -0.275386
     3  C   -0.269353
     4  C    0.160794
     5  C    0.456592
     6  C    0.766289
     7  C   -0.587727
     8  C   -0.354504
     9  C   -0.175703
    10  N   -0.651932
    11  N   -0.799861
    12  O   -0.633939
    13  H    0.287702
    14  H    0.285372
    15  H    0.270030
    16  H    0.292190
    17  H    0.234947
    18  H    0.236651
    19  H    0.191786
    20  H    0.294987
    21  H    0.226924
    22  H    0.229135
    23  H    0.244036
    24  H    0.241299
    25  H    0.416674
 Sum of Mulliken atomic charges =   1.00000

 Dipole moment (field-independent basis, Debye):
    X=             -3.0471    Y=             -1.3205    Z=             -2.5358  Tot=              4.1783
 Quadrupole moment (field-independent basis, Debye-Ang):
   XX=            -35.2397   YY=            -52.5563   ZZ=            -64.4231
   XY=             -5.1053   XZ=             -9.0262   YZ=             -1.2340

 Normal termination of Gaussian 09 at Sat Feb 17 21:02:21 2018.
