 Gaussian 09, Revision C.01,
 Gaussian 09:  AM64L-G09RevC.01 23-Sep-2011

 ---------------------------------------------------------
 #B3LYP/6-31G* Integral=(Grid=UltraFine) freq Opt pop=none
 ---------------------------------------------------------

 99/9=1/99;
 -----------------------------
 Optimization for frag31-conf0
 -----------------------------
 Charge =  1 Multiplicity = 1

 SCF Done:  E(RB3LYP) =  -535.300240425     A.U. after   16 cycles
 SCF Done:  E(RB3LYP) =  -535.303471968     A.U. after   13 cycles
 SCF Done:  E(RB3LYP) =  -535.303163493     A.U. after   13 cycles
 SCF Done:  E(RB3LYP) =  -535.304928457     A.U. after   13 cycles
 SCF Done:  E(RB3LYP) =  -535.305499857     A.U. after   11 cycles
 SCF Done:  E(RB3LYP) =  -535.305658297     A.U. after   12 cycles
 SCF Done:  E(RB3LYP) =  -535.305897520     A.U. after   11 cycles
 SCF Done:  E(RB3LYP) =  -535.306094124     A.U. after   12 cycles
 SCF Done:  E(RB3LYP) =  -535.306524902     A.U. after   13 cycles
 SCF Done:  E(RB3LYP) =  -535.306709628     A.U. after   12 cycles
 SCF Done:  E(RB3LYP) =  -535.310906640     A.U. after    9 cycles
 SCF Done:  E(RB3LYP) =  -535.310907807     A.U. after    8 cycles
 SCF Done:  E(RB3LYP) =  -535.310908935     A.U. after    8 cycles
 SCF Done:  E(RB3LYP) =  -535.310910759     A.U. after    8 cycles
 SCF Done:  E(RB3LYP) =  -535.310913699     A.U. after    9 cycles
 SCF Done:  E(RB3LYP) =  -535.310917392     A.U. after    9 cycles
 SCF Done:  E(RB3LYP) =  -535.310919765     A.U. after   10 cycles
 SCF Done:  E(RB3LYP) =  -535.310919848     A.U. after    7 cycles
 SCF Done:  E(RB3LYP) =  -535.310919851     A.U. after    6 cycles
 Optimization completed.
    -- Stationary point found.
 Normal termination of Gaussian 09 at Fri Feb 16 21:26:37 2018.

 --------------------------------------------------------------------
 #N Geom=AllCheck Guess=TCheck SCRF=Check GenChk RB3LYP/6-31G(d) Freq
 --------------------------------------------------------------------

 Structure from the checkpoint file:  frag31-conf0.chk
 -----------------------------
 Optimization for frag31-conf0
 -----------------------------
 Charge =  1 Multiplicity = 1

                         Standard orientation:
 ---------------------------------------------------------------------
 Center     Atomic      Atomic             Coordinates (Angstroms)
 Number     Number       Type             X           Y           Z
 ---------------------------------------------------------------------
      1          6           0       -2.161036   -1.759688    0.255090
      2          6           0       -2.904809   -0.699442    0.777270
      3          6           0       -1.000038   -1.480029   -0.455862
      4          6           0       -2.456757    0.589022    0.569911
      5          6           0       -0.572876   -0.167385   -0.650014
      6          6           0        2.293566   -0.003275    0.369721
      7          6           0        3.603846   -0.539884    0.896225
      8          6           0       -0.882256    2.263011   -0.246781
      9          6           0        0.690138    0.101491   -1.458069
     10          7           0       -1.319981    0.847215   -0.128763
     11          7           0        1.854373   -0.504729   -0.833960
     12          8           0        1.619940    0.836356    0.960172
     13          1           0       -2.484562   -2.785885    0.397478
     14          1           0       -3.817540   -0.860544    1.339190
     15          1           0       -0.395889   -2.279670   -0.869865
     16          1           0       -2.982813    1.453065    0.955168
     17          1           0        4.361122    0.248919    0.829654
     18          1           0        3.484513   -0.787845    1.953990
     19          1           0        3.962239   -1.419584    0.354892
     20          1           0        0.119587    2.336176    0.179452
     21          1           0       -0.895075    2.571509   -1.293570
     22          1           0       -1.576633    2.884176    0.316418
     23          1           0        0.560579   -0.355512   -2.443929
     24          1           0        0.845894    1.170948   -1.609540
     25          1           0        2.459643   -1.086930   -1.396603
 ---------------------------------------------------------------------

 SCF Done:  E(RB3LYP) =  -535.310919851     A.U. after    1 cycles

 Isotropic polarizability for W=    0.000000      103.44 Bohr**3.
 End of Minotr Frequency-dependent properties file   721 does not exist.

                     1                      2                      3
                     A                      A                      A
 Frequencies --    48.0330                60.0062                79.8750
 Red. masses --     1.7739                 1.9176                 3.3922
 Frc consts  --     0.0024                 0.0041                 0.0128
 IR Inten    --     1.2624                 9.0626                 5.9314

                     4                      5                      6
                     A                      A                      A
 Frequencies --    90.0370               158.5394               208.2187
 Red. masses --     3.6403                 3.3843                 4.6510
 Frc consts  --     0.0174                 0.0501                 0.1188
 IR Inten    --     5.2524                 4.7614                16.7938

                     7                      8                      9
                     A                      A                      A
 Frequencies --   223.8282               249.7617               299.7302
 Red. masses --     2.9383                 1.1707                 3.9417
 Frc consts  --     0.0867                 0.0430                 0.2086
 IR Inten    --     1.2366                 0.2705                 3.3129

                    10                     11                     12
                     A                      A                      A
 Frequencies --   360.8424               424.0498               428.4958
 Red. masses --     2.1196                 1.9658                 1.5079
 Frc consts  --     0.1626                 0.2083                 0.1631
 IR Inten    --     5.8441                29.0790                54.3324

                    13                     14                     15
                     A                      A                      A
 Frequencies --   441.0656               464.8538               502.0947
 Red. masses --     2.8531                 3.3549                 3.8491
 Frc consts  --     0.3270                 0.4271                 0.5717
 IR Inten    --     2.6709                14.0235                 8.9846

                    16                     17                     18
                     A                      A                      A
 Frequencies --   546.6797               606.9240               638.3035
 Red. masses --     4.2146                 4.4295                 2.6786
 Frc consts  --     0.7421                 0.9613                 0.6430
 IR Inten    --     7.9898                 2.8480                 2.9911

                    19                     20                     21
                     A                      A                      A
 Frequencies --   671.5169               730.0088               782.3028
 Red. masses --     4.1260                 4.1434                 1.5552
 Frc consts  --     1.0962                 1.3010                 0.5608
 IR Inten    --     3.5367                 6.0295                27.3913

                    22                     23                     24
                     A                      A                      A
 Frequencies --   801.6728               832.1378               875.2060
 Red. masses --     2.6440                 4.6260                 2.5277
 Frc consts  --     1.0012                 1.8873                 1.1408
 IR Inten    --    22.8698                 4.3966                 4.9290

                    25                     26                     27
                     A                      A                      A
 Frequencies --   908.4198               983.5738              1003.7804
 Red. masses --     1.3487                 1.3532                 1.6285
 Frc consts  --     0.6558                 0.7713                 0.9667
 IR Inten    --     1.9119                 0.6495                 4.9269

                    28                     29                     30
                     A                      A                      A
 Frequencies --  1036.2898              1045.7907              1071.9276
 Red. masses --     1.3502                 2.5979                 1.7249
 Frc consts  --     0.8543                 1.6740                 1.1678
 IR Inten    --     0.4873                 4.8346                10.4458

                    31                     32                     33
                     A                      A                      A
 Frequencies --  1079.7205              1100.0204              1117.9687
 Red. masses --     2.2015                 2.2918                 2.5010
 Frc consts  --     1.5122                 1.6339                 1.8417
 IR Inten    --     1.3016                 0.9752                 3.9072

                    34                     35                     36
                     A                      A                      A
 Frequencies --  1160.0777              1174.4091              1204.6827
 Red. masses --     1.3450                 1.8489                 2.1964
 Frc consts  --     1.0665                 1.5024                 1.8780
 IR Inten    --     3.8461                 6.1075                18.1231

                    37                     38                     39
                     A                      A                      A
 Frequencies --  1208.7296              1249.3182              1278.6435
 Red. masses --     1.2576                 2.2223                 1.8151
 Frc consts  --     1.0825                 2.0436                 1.7484
 IR Inten    --     3.9459                11.0340                57.4211

                    40                     41                     42
                     A                      A                      A
 Frequencies --  1288.8545              1354.5552              1361.3959
 Red. masses --     1.6903                 2.3403                 1.5708
 Frc consts  --     1.6543                 2.5300                 1.7153
 IR Inten    --    51.7286                 7.4713                 8.2565

                    43                     44                     45
                     A                      A                      A
 Frequencies --  1404.7674              1430.2316              1458.9211
 Red. masses --     1.3125                 1.2284                 1.2053
 Frc consts  --     1.5261                 1.4805                 1.5116
 IR Inten    --    30.5079                18.5700                10.3403

                    46                     47                     48
                     A                      A                      A
 Frequencies --  1493.8854              1504.9804              1506.0079
 Red. masses --     1.0635                 1.4292                 1.4088
 Frc consts  --     1.3984                 1.9073                 1.8826
 IR Inten    --    19.9723                 4.1926                12.0557

                    49                     50                     51
                     A                      A                      A
 Frequencies --  1510.9617              1513.8068              1537.4469
 Red. masses --     1.1041                 1.1085                 1.3402
 Frc consts  --     1.4851                 1.4967                 1.8665
 IR Inten    --    32.9161                13.6732                 7.0295

                    52                     53                     54
                     A                      A                      A
 Frequencies --  1542.9812              1565.7707              1630.4429
 Red. masses --     1.7718                 1.4590                 5.5041
 Frc consts  --     2.4853                 2.1074                 8.6207
 IR Inten    --   141.1649                50.9254                19.3691

                    55                     56                     57
                     A                      A                      A
 Frequencies --  1683.0118              1768.2172              3072.7060
 Red. masses --     5.3677                 9.0739                 1.0365
 Frc consts  --     8.9580                16.7154                 5.7657
 IR Inten    --    46.6196               162.6358                 1.4989

                    58                     59                     60
                     A                      A                      A
 Frequencies --  3095.1791              3098.7452              3143.0883
 Red. masses --     1.0475                 1.0471                 1.1010
 Frc consts  --     5.9125                 5.9237                 6.4081
 IR Inten    --     1.5474                17.0847                 4.0727

                    61                     62                     63
                     A                      A                      A
 Frequencies --  3149.4670              3162.9502              3187.8732
 Red. masses --     1.1018                 1.1042                 1.1084
 Frc consts  --     6.4389                 6.5085                 6.6365
 IR Inten    --     6.5903                 5.2925                14.1794

                    64                     65                     66
                     A                      A                      A
 Frequencies --  3205.3428              3227.3810              3238.9531
 Red. masses --     1.1067                 1.0899                 1.0943
 Frc consts  --     6.6996                 6.6888                 6.7637
 IR Inten    --     5.0851                 0.1527                 0.4419

                    67                     68                     69
                     A                      A                      A
 Frequencies --  3246.8814              3263.9180              3625.7043
 Red. masses --     1.0946                 1.0969                 1.0793
 Frc consts  --     6.7986                 6.8851                 8.3596
 IR Inten    --     2.1828                 2.4595                49.7661

 - Thermochemistry -
 -------------------
 Temperature   298.150 Kelvin.  Pressure   1.00000 Atm.
 Atom     1 has atomic number  6 and mass  12.00000

 Molecular mass:   165.10279 amu.
 Principal axes and moments of inertia in atomic units:
                           1         2         3
     Eigenvalues --  1099.428812801.281293169.35663
           X            0.99982  -0.01868  -0.00357
           Y            0.01860   0.99961  -0.02107
           Z            0.00396   0.02099   0.99977
 This molecule is an asymmetric top.
 Rotational symmetry number  1.
 Warning -- assumption of classical behavior for rotation
           may cause significant error
 Rotational temperatures (Kelvin)      0.07878     0.03092     0.02733
 Rotational constants (GHZ):           1.64153     0.64426     0.56943
 Zero-point vibrational energy     564768.8 (Joules/Mol)
                                  134.98297 (Kcal/Mol)
 Warning -- explicit consideration of  17 degrees of freedom as
           vibrations may cause significant error
 Vibrational temperatures:     69.11    86.34   114.92   129.54   228.10
          (Kelvin)            299.58   322.04   359.35   431.24   519.17
                              610.11   616.51   634.59   668.82   722.40
                              786.55   873.23   918.38   966.16  1050.32
                             1125.56  1153.43  1197.26  1259.22  1307.01
                             1415.14  1444.21  1490.99  1504.66  1542.26
                             1553.48  1582.68  1608.51  1669.09  1689.71
                             1733.27  1739.09  1797.49  1839.68  1854.37
                             1948.90  1958.74  2021.14  2057.78  2099.06
                             2149.37  2165.33  2166.81  2173.93  2178.03
                             2212.04  2220.00  2252.79  2345.84  2421.48
                             2544.07  4420.93  4453.27  4458.40  4522.20
                             4531.37  4550.77  4586.63  4611.77  4643.48
                             4660.13  4671.53  4696.04  5216.57

 Zero-point correction=                           0.215109 (Hartree/Particle)
 Thermal correction to Energy=                    0.226882
 Thermal correction to Enthalpy=                  0.227826
 Thermal correction to Gibbs Free Energy=         0.176735
 Sum of electronic and zero-point Energies=           -535.095811
 Sum of electronic and thermal Energies=              -535.084038
 Sum of electronic and thermal Enthalpies=            -535.083094
 Sum of electronic and thermal Free Energies=         -535.134185

                     E (Thermal)             CV                S
                      KCal/Mol        Cal/Mol-Kelvin    Cal/Mol-Kelvin
 Total                  142.370             43.983            107.530
 Electronic               0.000              0.000              0.000
 Translational            0.889              2.981             41.213
 Rotational               0.889              2.981             30.657
 Vibrational            140.593             38.022             35.660
 Vibration     1          0.595              1.978              4.897
 Vibration     2          0.597              1.973              4.457
 Vibration     3          0.600              1.963              3.894
 Vibration     4          0.602              1.956              3.659
 Vibration     5          0.621              1.893              2.567
 Vibration     6          0.642              1.828              2.059
 Vibration     7          0.649              1.805              1.928
 Vibration     8          0.663              1.763              1.732
 Vibration     9          0.692              1.674              1.418
 Vibration    10          0.735              1.553              1.118
 Vibration    11          0.786              1.418              0.878
 Vibration    12          0.790              1.408              0.864
 Vibration    13          0.801              1.381              0.823
 Vibration    14          0.822              1.328              0.752
 Vibration    15          0.857              1.245              0.653
 Vibration    16          0.902              1.147              0.551
 Vibration    17          0.966              1.017              0.438

 Optimization completed.
    -- Stationary point found.
 Normal termination of Gaussian 09 at Fri Feb 16 21:48:55 2018.
