 Gaussian 09, Revision C.01,
 Gaussian 09:  AM64L-G09RevC.01 23-Sep-2011

 ---------------------------------------------------------
 #B3LYP/6-31G* Integral=(Grid=UltraFine) freq Opt pop=none
 ---------------------------------------------------------

 99/9=1/99;
 -----------------------------
 Optimization for frag23-conf2
 -----------------------------
 Charge =  0 Multiplicity = 1

 SCF Done:  E(RB3LYP) =  -931.044770290     A.U. after   15 cycles
 SCF Done:  E(RB3LYP) =  -931.049139215     A.U. after   12 cycles
 SCF Done:  E(RB3LYP) =  -931.049414354     A.U. after   14 cycles
 SCF Done:  E(RB3LYP) =  -931.049745114     A.U. after   12 cycles
 SCF Done:  E(RB3LYP) =  -931.050050777     A.U. after   11 cycles
 SCF Done:  E(RB3LYP) =  -931.050148560     A.U. after   12 cycles
 SCF Done:  E(RB3LYP) =  -931.050196809     A.U. after   11 cycles
 SCF Done:  E(RB3LYP) =  -931.050231496     A.U. after   10 cycles
 SCF Done:  E(RB3LYP) =  -931.050247503     A.U. after   10 cycles
 SCF Done:  E(RB3LYP) =  -931.050252799     A.U. after    9 cycles
 SCF Done:  E(RB3LYP) =  -931.050259798     A.U. after   10 cycles
 SCF Done:  E(RB3LYP) =  -931.050260998     A.U. after   11 cycles
 SCF Done:  E(RB3LYP) =  -931.050260417     A.U. after   10 cycles
 SCF Done:  E(RB3LYP) =  -931.050261190     A.U. after    9 cycles
 SCF Done:  E(RB3LYP) =  -931.050261553     A.U. after    9 cycles
 SCF Done:  E(RB3LYP) =  -931.050262147     A.U. after   10 cycles
 SCF Done:  E(RB3LYP) =  -931.050262335     A.U. after    8 cycles
 SCF Done:  E(RB3LYP) =  -931.050262348     A.U. after    7 cycles
 SCF Done:  E(RB3LYP) =  -931.050262350     A.U. after    7 cycles
 Optimization completed.
    -- Stationary point found.
 Normal termination of Gaussian 09 at Fri Feb 16 19:43:42 2018.

 --------------------------------------------------------------------
 #N Geom=AllCheck Guess=TCheck SCRF=Check GenChk RB3LYP/6-31G(d) Freq
 --------------------------------------------------------------------

 Structure from the checkpoint file:  frag23-conf2.chk
 -----------------------------
 Optimization for frag23-conf2
 -----------------------------
 Charge =  0 Multiplicity = 1

                         Standard orientation:
 ---------------------------------------------------------------------
 Center     Atomic      Atomic             Coordinates (Angstroms)
 Number     Number       Type             X           Y           Z
 ---------------------------------------------------------------------
      1          6           0        1.770637   -0.730349   -0.258065
      2          6           0        3.900701    0.138672    0.550435
      3          6           0        2.233773    1.748101   -0.264829
      4          6           0       -2.764794    0.900677   -1.163122
      5          6           0        0.343623   -0.466279   -0.771998
      6          7           0       -0.495298    0.127392    0.271560
      7          7           0        2.571789    0.359584   -0.006243
      8          8           0        2.151181   -1.879932   -0.086606
      9          8           0       -2.631776    0.624910    1.463670
     10          8           0       -2.445226   -1.456101   -0.029549
     11         16           0       -2.162579   -0.051160    0.254871
     12          1           0        4.673686    0.481566   -0.149968
     13          1           0        4.023632   -0.927620    0.732815
     14          1           0        4.015094    0.691390    1.491666
     15          1           0        2.155450    2.320505    0.671088
     16          1           0        1.293443    1.838066   -0.809211
     17          1           0        3.015273    2.217813   -0.876398
     18          1           0       -3.847883    0.763462   -1.202952
     19          1           0       -2.527196    1.956378   -1.016695
     20          1           0       -2.310758    0.516329   -2.079230
     21          1           0        0.360927    0.127036   -1.700713
     22          1           0       -0.067686   -1.449737   -0.996905
     23          1           0       -0.215229    1.018605    0.666691
 ---------------------------------------------------------------------

 SCF Done:  E(RB3LYP) =  -931.050262350     A.U. after    1 cycles

 Isotropic polarizability for W=    0.000000       92.32 Bohr**3.
 End of Minotr Frequency-dependent properties file   721 does not exist.

                     1                      2                      3
                     A                      A                      A
 Frequencies --    13.3807                43.4993                58.3186
 Red. masses --     3.4920                 4.1754                 3.8450
 Frc consts  --     0.0004                 0.0047                 0.0077
 IR Inten    --     1.3956                 0.7802                 1.1225

                     4                      5                      6
                     A                      A                      A
 Frequencies --    70.9276               122.2808               137.8956
 Red. masses --     1.8970                 2.6115                 1.8824
 Frc consts  --     0.0056                 0.0230                 0.0211
 IR Inten    --     0.9452                 0.8728                 2.2281

                     7                      8                      9
                     A                      A                      A
 Frequencies --   159.4560               188.6643               217.7908
 Red. masses --     1.6827                 3.3862                 1.1040
 Frc consts  --     0.0252                 0.0710                 0.0309
 IR Inten    --     0.9849                 0.0764                 0.6205

                    10                     11                     12
                     A                      A                      A
 Frequencies --   253.0154               293.9599               318.8507
 Red. masses --     1.9576                 3.3357                 3.8121
 Frc consts  --     0.0738                 0.1698                 0.2283
 IR Inten    --     5.8449                 1.1475                 3.2226

                    13                     14                     15
                     A                      A                      A
 Frequencies --   330.5019               400.2764               408.5815
 Red. masses --     3.0142                 2.1978                 3.4741
 Frc consts  --     0.1940                 0.2075                 0.3417
 IR Inten    --     6.7267                14.1849                 7.9381

                    16                     17                     18
                     A                      A                      A
 Frequencies --   429.3243               470.3078               489.5451
 Red. masses --     1.8364                 3.3636                 7.3473
 Frc consts  --     0.1994                 0.4384                 1.0374
 IR Inten    --    61.6094                23.5742                27.4232

                    19                     20                     21
                     A                      A                      A
 Frequencies --   501.5785               608.9257               686.0669
 Red. masses --     4.9231                 4.1085                 5.1043
 Frc consts  --     0.7297                 0.8976                 1.4155
 IR Inten    --    67.1472                 5.4319                 4.4183

                    22                     23                     24
                     A                      A                      A
 Frequencies --   725.9412               755.9214               858.3149
 Red. masses --     5.0858                 4.7971                 4.2548
 Frc consts  --     1.5791                 1.6150                 1.8468
 IR Inten    --    29.7192                56.6037               121.4488

                    25                     26                     27
                     A                      A                      A
 Frequencies --   972.1273               991.3531               994.3624
 Red. masses --     2.3267                 1.3515                 1.5750
 Frc consts  --     1.2955                 0.7826                 0.9175
 IR Inten    --     7.1892                 0.0863                38.5404

                    28                     29                     30
                     A                      A                      A
 Frequencies --  1021.2135              1089.2340              1097.6294
 Red. masses --     1.8308                 1.3689                 4.6374
 Frc consts  --     1.1249                 0.9569                 3.2919
 IR Inten    --    74.9416                 5.8240                61.7102

                    31                     32                     33
                     A                      A                      A
 Frequencies --  1138.4575              1139.9253              1178.7500
 Red. masses --     1.3680                 5.4071                 1.9508
 Frc consts  --     1.0446                 4.1397                 1.5970
 IR Inten    --    33.2163               196.7192                81.3739

                    34                     35                     36
                     A                      A                      A
 Frequencies --  1184.6910              1263.5911              1288.9217
 Red. masses --     1.3640                 1.2435                 5.0277
 Frc consts  --     1.1279                 1.1698                 4.9212
 IR Inten    --     2.7123                12.3740                38.4887

                    37                     38                     39
                     A                      A                      A
 Frequencies --  1345.9605              1368.8514              1379.7833
 Red. masses --     3.9393                 1.5061                 1.2427
 Frc consts  --     4.2046                 1.6627                 1.3940
 IR Inten    --   127.4227                33.4052                13.4733

                    40                     41                     42
                     A                      A                      A
 Frequencies --  1443.1617              1450.6683              1455.4567
 Red. masses --     2.3355                 1.3145                 1.3017
 Frc consts  --     2.8659                 1.6298                 1.6246
 IR Inten    --   120.9721                46.7953                48.3829

                    43                     44                     45
                     A                      A                      A
 Frequencies --  1483.9789              1492.5301              1494.3446
 Red. masses --     1.0517                 1.0710                 1.1883
 Frc consts  --     1.3645                 1.4057                 1.5634
 IR Inten    --     2.4275                 6.8442                17.7131

                    46                     47                     48
                     A                      A                      A
 Frequencies --  1515.2645              1528.0979              1531.7698
 Red. masses --     1.0486                 1.0655                 1.0498
 Frc consts  --     1.4186                 1.4659                 1.4512
 IR Inten    --     1.6588                 9.3523                11.8259

                    49                     50                     51
                     A                      A                      A
 Frequencies --  1540.0835              1566.5551              1776.8095
 Red. masses --     1.0905                 1.1807                 9.9572
 Frc consts  --     1.5239                 1.7072                18.5212
 IR Inten    --    10.8664                32.5844               308.6112

                    52                     53                     54
                     A                      A                      A
 Frequencies --  2991.0168              3021.9132              3036.9165
 Red. masses --     1.0727                 1.0443                 1.0399
 Frc consts  --     5.6541                 5.6189                 5.6506
 IR Inten    --    47.8976                41.0167                64.3576

                    55                     56                     57
                     A                      A                      A
 Frequencies --  3069.5312              3080.7332              3084.7275
 Red. masses --     1.0994                 1.0296                 1.1048
 Frc consts  --     6.1032                 5.7573                 6.1941
 IR Inten    --    38.4960                 1.4570                27.5882

                    58                     59                     60
                     A                      A                      A
 Frequencies --  3168.4290              3172.2621              3179.4043
 Red. masses --     1.0940                 1.0907                 1.1061
 Frc consts  --     6.4709                 6.4670                 6.5877
 IR Inten    --    20.7037                 2.6159                 1.4954

                    61                     62                     63
                     A                      A                      A
 Frequencies --  3182.7819              3196.4702              3583.1129
 Red. masses --     1.1077                 1.0962                 1.0759
 Frc consts  --     6.6114                 6.5992                 8.1382
 IR Inten    --     2.6026                 1.2166                20.5316

 - Thermochemistry -
 -------------------
 Temperature   298.150 Kelvin.  Pressure   1.00000 Atm.
 Atom     1 has atomic number  6 and mass  12.00000

 Molecular mass:   180.05686 amu.
 Principal axes and moments of inertia in atomic units:
                           1         2         3
     Eigenvalues --   924.171843847.899724190.14304
           X            0.99980   0.00899   0.01811
           Y           -0.00827   0.99919  -0.03950
           Z           -0.01845   0.03935   0.99906
 This molecule is an asymmetric top.
 Rotational symmetry number  1.
 Warning -- assumption of classical behavior for rotation
           may cause significant error
 Rotational temperatures (Kelvin)      0.09372     0.02251     0.02067
 Rotational constants (GHZ):           1.95282     0.46902     0.43071
 Zero-point vibrational energy     490733.3 (Joules/Mol)
                                  117.28807 (Kcal/Mol)
 Warning -- explicit consideration of  20 degrees of freedom as
           vibrations may cause significant error
 Vibrational temperatures:     19.25    62.59    83.91   102.05   175.93
          (Kelvin)            198.40   229.42   271.45   313.35   364.03
                              422.94   458.75   475.52   575.91   587.86
                              617.70   676.67   704.35   721.66   876.11
                              987.10  1044.47  1087.60  1234.92  1398.67
                             1426.33  1430.66  1469.30  1567.16  1579.24
                             1637.98  1640.10  1695.96  1704.50  1818.02
                             1854.47  1936.53  1969.47  1985.20  2076.39
                             2087.19  2094.07  2135.11  2147.42  2150.03
                             2180.12  2198.59  2203.87  2215.83  2253.92
                             2556.43  4303.40  4347.85  4369.44  4416.37
                             4432.48  4438.23  4558.66  4564.17  4574.45
                             4579.31  4599.00  5155.29

 Zero-point correction=                           0.186910 (Hartree/Particle)
 Thermal correction to Energy=                    0.200415
 Thermal correction to Enthalpy=                  0.201359
 Thermal correction to Gibbs Free Energy=         0.144647
 Sum of electronic and zero-point Energies=           -930.863352
 Sum of electronic and thermal Energies=              -930.849847
 Sum of electronic and thermal Enthalpies=            -930.848903
 Sum of electronic and thermal Free Energies=         -930.905615

                     E (Thermal)             CV                S
                      KCal/Mol        Cal/Mol-Kelvin    Cal/Mol-Kelvin
 Total                  125.762             46.644            119.360
 Electronic               0.000              0.000              0.000
 Translational            0.889              2.981             41.471
 Rotational               0.889              2.981             31.078
 Vibrational            123.985             40.682             46.811
 Vibration     1          0.593              1.987              7.432
 Vibration     2          0.595              1.980              5.093
 Vibration     3          0.596              1.974              4.513
 Vibration     4          0.598              1.968              4.127
 Vibration     5          0.610              1.931              3.064
 Vibration     6          0.614              1.915              2.833
 Vibration     7          0.621              1.892              2.556
 Vibration     8          0.633              1.855              2.241
 Vibration     9          0.646              1.814              1.977
 Vibration    10          0.664              1.758              1.709
 Vibration    11          0.689              1.685              1.451
 Vibration    12          0.705              1.638              1.316
 Vibration    13          0.713              1.615              1.258
 Vibration    14          0.766              1.470              0.962
 Vibration    15          0.773              1.452              0.932
 Vibration    16          0.791              1.406              0.861
 Vibration    17          0.827              1.316              0.737
 Vibration    18          0.845              1.273              0.685
 Vibration    19          0.857              1.247              0.654
 Vibration    20          0.968              1.013              0.435

 Optimization completed.
    -- Stationary point found.
 Normal termination of Gaussian 09 at Fri Feb 16 19:58:05 2018.
