 Gaussian 09, Revision C.01,
 Gaussian 09:  AM64L-G09RevC.01 23-Sep-2011

 ----------------------------------------------------------------------
 #HF/6-31G* Geom=AllCheck Guess=Read Pop=(MK,ReadRadii) Integral=(Grid=
 UltraFine) iop(6/33=2)
 ----------------------------------------------------------------------

 Structure from the checkpoint file:  frag52-conf0.chk
 -----------------------------
 Optimization for frag52-conf0
 -----------------------------
 Charge =  0 Multiplicity = 1

                         Standard orientation:
 ---------------------------------------------------------------------
 Center     Atomic      Atomic             Coordinates (Angstroms)
 Number     Number       Type             X           Y           Z
 ---------------------------------------------------------------------
      1          6           0       -0.538213    1.125833   -0.298663
      2          6           0       -1.671817   -0.958696    0.044131
      3          6           0       -1.779804    1.743883   -0.211291
      4          6           0       -0.483528   -0.271650   -0.170527
      5          6           0       -2.881715   -0.236272    0.111188
      6          6           0        3.114931   -0.101562   -0.039705
      7          6           0        4.113539    0.513937    0.929707
      8          6           0        0.828056   -1.022507   -0.282864
      9          7           0       -2.936878    1.097182   -0.016140
     10          7           0       -4.082265   -0.876130    0.372024
     11          7           0        1.896571   -0.423066    0.499990
     12          8           0        3.391051   -0.296885   -1.216498
     13          1           0        0.362352    1.707324   -0.466031
     14          1           0       -1.673202   -2.039291    0.167937
     15          1           0       -1.860066    2.825651   -0.310080
     16          1           0        4.983976   -0.145504    1.005193
     17          1           0        4.461342    1.465644    0.517386
     18          1           0        3.711153    0.685227    1.933200
     19          1           0        0.680477   -2.071165    0.008750
     20          1           0        1.189500   -1.020503   -1.316792
     21          1           0       -4.164263   -1.836057    0.065295
     22          1           0       -4.893945   -0.306644    0.167334
     23          1           0        1.723581   -0.233307    1.476818
 ---------------------------------------------------------------------

 SCF Done:  E(RHF) =  -547.582497287     A.U. after   14 cycles

 The electronic state is 1-A.
 Alpha  occ. eigenvalues --  -20.52396 -15.59641 -15.57210 -15.55292 -11.35894
 Alpha  occ. eigenvalues --  -11.31835 -11.27743 -11.27504 -11.26670 -11.24285
 Alpha  occ. eigenvalues --  -11.23342 -11.22450  -1.37668  -1.27775  -1.23498
 Alpha  occ. eigenvalues --   -1.18316  -1.09823  -1.01504  -1.00380  -0.94474
 Alpha  occ. eigenvalues --   -0.85257  -0.81998  -0.79312  -0.71829  -0.70180
 Alpha  occ. eigenvalues --   -0.67941  -0.65995  -0.65565  -0.62386  -0.61623
 Alpha  occ. eigenvalues --   -0.60265  -0.58032  -0.57506  -0.56728  -0.55448
 Alpha  occ. eigenvalues --   -0.54115  -0.52278  -0.50458  -0.45421  -0.42204
 Alpha  occ. eigenvalues --   -0.41434  -0.39721  -0.36688  -0.30574
 Alpha virt. eigenvalues --    0.12408   0.15317   0.19344   0.21613   0.22949
 Alpha virt. eigenvalues --    0.25667   0.26417   0.27762   0.29096   0.31045
 Alpha virt. eigenvalues --    0.31193   0.32610   0.33377   0.34017   0.35915

 Mulliken atomic charges:
              1
     1  C   -0.297710
     2  C   -0.331261
     3  C    0.088794
     4  C    0.080637
     5  C    0.581532
     6  C    0.758591
     7  C   -0.577753
     8  C   -0.139729
     9  N   -0.617059
    10  N   -0.897745
    11  N   -0.809493
    12  O   -0.621519
    13  H    0.211260
    14  H    0.200687
    15  H    0.203820
    16  H    0.209664
    17  H    0.210341
    18  H    0.168116
    19  H    0.185085
    20  H    0.253336
    21  H    0.367094
    22  H    0.384026
    23  H    0.389285
 Sum of Mulliken atomic charges =   0.00000

 Dipole moment (field-independent basis, Debye):
    X=             -0.5914    Y=             -1.2305    Z=              2.5166  Tot=              2.8631
 Quadrupole moment (field-independent basis, Debye-Ang):
   XX=            -72.1313   YY=            -64.8711   ZZ=            -75.6898
   XY=             10.4889   XZ=             16.0177   YZ=             -0.0655

 Normal termination of Gaussian 09 at Sat Feb 17 21:06:24 2018.
