 Gaussian 09, Revision C.01,
 Gaussian 09:  AM64L-G09RevC.01 23-Sep-2011

 ---------------------------------------------------------
 #B3LYP/6-31G* Integral=(Grid=UltraFine) freq Opt pop=none
 ---------------------------------------------------------

 99/9=1/99;
 -----------------------------
 Optimization for frag52-conf0
 -----------------------------
 Charge =  0 Multiplicity = 1

 SCF Done:  E(RB3LYP) =  -550.971003627     A.U. after   15 cycles
 SCF Done:  E(RB3LYP) =  -550.973650133     A.U. after   12 cycles
 SCF Done:  E(RB3LYP) =  -550.974004458     A.U. after   11 cycles
 SCF Done:  E(RB3LYP) =  -550.974064579     A.U. after   11 cycles
 SCF Done:  E(RB3LYP) =  -550.974117820     A.U. after   11 cycles
 SCF Done:  E(RB3LYP) =  -550.974158365     A.U. after   12 cycles
 SCF Done:  E(RB3LYP) =  -550.974356794     A.U. after   15 cycles
 SCF Done:  E(RB3LYP) =  -550.974527554     A.U. after   15 cycles
 SCF Done:  E(RB3LYP) =  -550.974769532     A.U. after   12 cycles
 SCF Done:  E(RB3LYP) =  -550.975184757     A.U. after   15 cycles
 SCF Done:  E(RB3LYP) =  -550.975934350     A.U. after   10 cycles
 SCF Done:  E(RB3LYP) =  -550.975935736     A.U. after    9 cycles
 SCF Done:  E(RB3LYP) =  -550.975936527     A.U. after    9 cycles
 SCF Done:  E(RB3LYP) =  -550.975937347     A.U. after   10 cycles
 SCF Done:  E(RB3LYP) =  -550.975938153     A.U. after   10 cycles
 SCF Done:  E(RB3LYP) =  -550.975938736     A.U. after    9 cycles
 SCF Done:  E(RB3LYP) =  -550.975939282     A.U. after    9 cycles
 SCF Done:  E(RB3LYP) =  -550.975939639     A.U. after    9 cycles
 SCF Done:  E(RB3LYP) =  -550.975939676     A.U. after    7 cycles
 Optimization completed.
    -- Stationary point found.
 Normal termination of Gaussian 09 at Fri Feb 16 21:53:22 2018.

 --------------------------------------------------------------------
 #N Geom=AllCheck Guess=TCheck SCRF=Check GenChk RB3LYP/6-31G(d) Freq
 --------------------------------------------------------------------

 Structure from the checkpoint file:  frag52-conf0.chk
 -----------------------------
 Optimization for frag52-conf0
 -----------------------------
 Charge =  0 Multiplicity = 1

                         Standard orientation:
 ---------------------------------------------------------------------
 Center     Atomic      Atomic             Coordinates (Angstroms)
 Number     Number       Type             X           Y           Z
 ---------------------------------------------------------------------
      1          6           0       -0.538213    1.125833   -0.298663
      2          6           0       -1.671817   -0.958696    0.044131
      3          6           0       -1.779804    1.743883   -0.211291
      4          6           0       -0.483528   -0.271650   -0.170527
      5          6           0       -2.881715   -0.236272    0.111188
      6          6           0        3.114931   -0.101562   -0.039705
      7          6           0        4.113539    0.513937    0.929707
      8          6           0        0.828056   -1.022507   -0.282864
      9          7           0       -2.936878    1.097182   -0.016140
     10          7           0       -4.082265   -0.876130    0.372024
     11          7           0        1.896571   -0.423066    0.499990
     12          8           0        3.391051   -0.296885   -1.216498
     13          1           0        0.362352    1.707324   -0.466031
     14          1           0       -1.673202   -2.039291    0.167937
     15          1           0       -1.860066    2.825651   -0.310080
     16          1           0        4.983976   -0.145504    1.005193
     17          1           0        4.461342    1.465644    0.517386
     18          1           0        3.711153    0.685227    1.933200
     19          1           0        0.680477   -2.071165    0.008750
     20          1           0        1.189500   -1.020503   -1.316792
     21          1           0       -4.164263   -1.836057    0.065295
     22          1           0       -4.893945   -0.306644    0.167334
     23          1           0        1.723581   -0.233307    1.476818
 ---------------------------------------------------------------------

 SCF Done:  E(RB3LYP) =  -550.975939676     A.U. after    1 cycles

 Isotropic polarizability for W=    0.000000      104.94 Bohr**3.
 End of Minotr Frequency-dependent properties file   721 does not exist.

                     1                      2                      3
                     A                      A                      A
 Frequencies --    18.8125                27.9792                50.9425
 Red. masses --     4.5299                 3.8786                 1.3265
 Frc consts  --     0.0009                 0.0018                 0.0020
 IR Inten    --     3.7720                 1.6594                 5.8771

                     4                      5                      6
                     A                      A                      A
 Frequencies --    73.2519               185.1495               199.3063
 Red. masses --     2.5164                 4.0330                 5.5675
 Frc consts  --     0.0080                 0.0815                 0.1303
 IR Inten    --     6.9726                 1.9614                 3.1610

                     7                      8                      9
                     A                      A                      A
 Frequencies --   209.9888               274.4161               295.9167
 Red. masses --     4.2353                 5.0605                 2.3341
 Frc consts  --     0.1100                 0.2245                 0.1204
 IR Inten    --     6.6128                 1.0708                 6.0212

                    10                     11                     12
                     A                      A                      A
 Frequencies --   377.4261               419.2993               439.8288
 Red. masses --     1.1536                 2.9706                 1.4968
 Frc consts  --     0.0968                 0.3077                 0.1706
 IR Inten    --    45.6389                 2.6644                71.3271

                    13                     14                     15
                     A                      A                      A
 Frequencies --   455.5884               487.9542               540.7571
 Red. masses --     1.8864                 3.0215                 2.1856
 Frc consts  --     0.2307                 0.4239                 0.3765
 IR Inten    --    62.1649                12.8493               167.9621

                    16                     17                     18
                     A                      A                      A
 Frequencies --   559.6856               601.4254               626.7194
 Red. masses --     4.3891                 2.1404                 2.7869
 Frc consts  --     0.8101                 0.4561                 0.6449
 IR Inten    --    47.5115               115.3346                 3.3798

                    19                     20                     21
                     A                      A                      A
 Frequencies --   637.1931               673.3082               762.2464
 Red. masses --     3.1318                 4.8019                 3.4829
 Frc consts  --     0.7492                 1.2826                 1.1923
 IR Inten    --    10.1634                33.7155                10.2233

                    22                     23                     24
                     A                      A                      A
 Frequencies --   792.0628               830.8459               866.4312
 Red. masses --     3.7738                 1.3908                 1.5391
 Frc consts  --     1.3949                 0.5656                 0.6807
 IR Inten    --     0.5228                23.1668                14.9708

                    25                     26                     27
                     A                      A                      A
 Frequencies --   899.5408               963.2519               976.2251
 Red. masses --     2.7477                 3.9559                 1.3565
 Frc consts  --     1.3100                 2.1626                 0.7617
 IR Inten    --     7.0808                 4.7652                 0.3752

                    28                     29                     30
                     A                      A                      A
 Frequencies --  1005.6937              1008.7898              1051.2213
 Red. masses --     2.2509                 3.0213                 2.3762
 Frc consts  --     1.3413                 1.8115                 1.5471
 IR Inten    --     6.7269                 6.8145                20.4069

                    31                     32                     33
                     A                      A                      A
 Frequencies --  1067.9428              1084.6193              1126.5265
 Red. masses --     1.6958                 1.5798                 3.4252
 Frc consts  --     1.1395                 1.0950                 2.5611
 IR Inten    --     6.5614                 0.1854                 9.6143

                    34                     35                     36
                     A                      A                      A
 Frequencies --  1161.0305              1205.0525              1260.0974
 Red. masses --     1.2929                 1.8489                 1.2834
 Frc consts  --     1.0268                 1.5818                 1.2007
 IR Inten    --     0.4689                 7.9192                 1.7353

                    37                     38                     39
                     A                      A                      A
 Frequencies --  1279.2164              1328.4196              1346.8201
 Red. masses --     1.8392                 4.0073                 1.6932
 Frc consts  --     1.7733                 4.1665                 1.8096
 IR Inten    --   181.9790                28.5901                16.0979

                    40                     41                     42
                     A                      A                      A
 Frequencies --  1363.1243              1397.6551              1427.1298
 Red. masses --     2.1172                 1.4518                 1.2635
 Frc consts  --     2.3179                 1.6710                 1.5162
 IR Inten    --    11.3551                 6.4032                27.9463

                    43                     44                     45
                     A                      A                      A
 Frequencies --  1483.7092              1501.0851              1516.2731
 Red. masses --     3.4316                 1.0460                 1.0715
 Frc consts  --     4.4509                 1.3886                 1.4514
 IR Inten    --   163.9844                 5.7880                21.2708

                    46                     47                     48
                     A                      A                      A
 Frequencies --  1517.9429              1540.5833              1555.5576
 Red. masses --     1.1089                 2.2974                 1.9485
 Frc consts  --     1.5054                 3.2126                 2.7779
 IR Inten    --    14.3999                16.8463               225.9839

                    49                     50                     51
                     A                      A                      A
 Frequencies --  1621.4911              1658.3509              1677.3431
 Red. masses --     5.9783                 2.1495                 1.9383
 Frc consts  --     9.2609                 3.4830                 3.2130
 IR Inten    --    49.7990                37.7035               335.0849

                    52                     53                     54
                     A                      A                      A
 Frequencies --  1787.1858              3037.2335              3064.3181
 Red. masses --     9.2115                 1.0685                 1.0358
 Frc consts  --    17.3349                 5.8075                 5.7305
 IR Inten    --   250.4513                38.7995                 8.6972

                    55                     56                     57
                     A                      A                      A
 Frequencies --  3105.7860              3137.9127              3144.1352
 Red. masses --     1.0938                 1.1029                 1.1019
 Frc consts  --     6.2162                 6.3985                 6.4179
 IR Inten    --    12.4834                15.5859                 9.6051

                    58                     59                     60
                     A                      A                      A
 Frequencies --  3167.7260              3178.5613              3217.7697
 Red. masses --     1.0894                 1.0905                 1.0929
 Frc consts  --     6.4407                 6.4916                 6.6673
 IR Inten    --    34.5382                11.4981                 8.0673

                    61                     62                     63
                     A                      A                      A
 Frequencies --  3563.8090              3627.7557              3674.5942
 Red. masses --     1.0469                 1.0777                 1.1000
 Frc consts  --     7.8343                 8.3563                 8.7508
 IR Inten    --    32.6931                18.0209                19.8061

 - Thermochemistry -
 -------------------
 Temperature   298.150 Kelvin.  Pressure   1.00000 Atm.
 Atom     1 has atomic number  6 and mass  12.00000

 Molecular mass:   165.09021 amu.
 Principal axes and moments of inertia in atomic units:
                           1         2         3
     Eigenvalues --   678.366994490.575054799.58763
           X            0.99985   0.01215   0.01265
           Y           -0.01228   0.99987   0.01012
           Z           -0.01253  -0.01027   0.99987
 This molecule is an asymmetric top.
 Rotational symmetry number  1.
 Warning -- assumption of classical behavior for rotation
           may cause significant error
 Rotational temperatures (Kelvin)      0.12768     0.01929     0.01805
 Rotational constants (GHZ):           2.66042     0.40190     0.37602
 Zero-point vibrational energy     497275.8 (Joules/Mol)
                                  118.85176 (Kcal/Mol)
 Warning -- explicit consideration of  17 degrees of freedom as
           vibrations may cause significant error
 Vibrational temperatures:     27.07    40.26    73.29   105.39   266.39
          (Kelvin)            286.76   302.13   394.82   425.76   543.03
                              603.28   632.81   655.49   702.06   778.03
                              805.26   865.32   901.71   916.78   968.74
                             1096.70  1139.60  1195.40  1246.60  1294.24
                             1385.90  1404.57  1446.97  1451.42  1512.47
                             1536.53  1560.52  1620.82  1670.46  1733.80
                             1813.00  1840.50  1911.30  1937.77  1961.23
                             2010.91  2053.32  2134.72  2159.72  2181.58
                             2183.98  2216.55  2238.10  2332.96  2385.99
                             2413.32  2571.36  4369.90  4408.86  4468.53
                             4514.75  4523.70  4557.65  4573.24  4629.65
                             5127.52  5219.52  5286.91

 Zero-point correction=                           0.189402 (Hartree/Particle)
 Thermal correction to Energy=                    0.201303
 Thermal correction to Enthalpy=                  0.202247
 Thermal correction to Gibbs Free Energy=         0.148958
 Sum of electronic and zero-point Energies=           -550.786537
 Sum of electronic and thermal Energies=              -550.774637
 Sum of electronic and thermal Enthalpies=            -550.773692
 Sum of electronic and thermal Free Energies=         -550.826981

                     E (Thermal)             CV                S
                      KCal/Mol        Cal/Mol-Kelvin    Cal/Mol-Kelvin
 Total                  126.320             43.577            112.156
 Electronic               0.000              0.000              0.000
 Translational            0.889              2.981             41.212
 Rotational               0.889              2.981             31.059
 Vibrational            124.542             37.616             39.885
 Vibration     1          0.593              1.986              6.756
 Vibration     2          0.593              1.984              5.968
 Vibration     3          0.595              1.977              4.780
 Vibration     4          0.599              1.967              4.064
 Vibration     5          0.631              1.860              2.276
 Vibration     6          0.637              1.841              2.139
 Vibration     7          0.642              1.826              2.044
 Vibration     8          0.677              1.721              1.568
 Vibration     9          0.690              1.681              1.440
 Vibration    10          0.748              1.518              1.049
 Vibration    11          0.782              1.428              0.894
 Vibration    12          0.800              1.383              0.827
 Vibration    13          0.814              1.349              0.779
 Vibration    14          0.844              1.277              0.689
 Vibration    15          0.896              1.160              0.564
 Vibration    16          0.915              1.119              0.524
 Vibration    17          0.960              1.029              0.447

 Optimization completed.
    -- Stationary point found.
 Normal termination of Gaussian 09 at Fri Feb 16 22:06:59 2018.
